# vtk DataFile Version 3.0
Unstructured Grid from OpenGeoSys
ASCII
DATASET UNSTRUCTURED_GRID
FIELD TimesAndCycles 2
TIME 1 1 double
2.000000000000e+03
CYLCE 1 1 long
1
POINTS 11568 double
-5.000000000000e+00 -5.000000000000e+00 0.000000000000e+00
-4.898989898990e+00 -5.000000000000e+00 0.000000000000e+00
-4.797979797980e+00 -5.000000000000e+00 0.000000000000e+00
-4.696969696970e+00 -5.000000000000e+00 0.000000000000e+00
-4.595959595960e+00 -5.000000000000e+00 0.000000000000e+00
-4.494949494950e+00 -5.000000000000e+00 0.000000000000e+00
-4.393939393940e+00 -5.000000000000e+00 0.000000000000e+00
-4.292929292930e+00 -5.000000000000e+00 0.000000000000e+00
-4.191919191920e+00 -5.000000000000e+00 0.000000000000e+00
-4.090909090910e+00 -5.000000000000e+00 0.000000000000e+00
-3.989898989900e+00 -5.000000000000e+00 0.000000000000e+00
-3.888888888890e+00 -5.000000000000e+00 0.000000000000e+00
-3.787878787880e+00 -5.000000000000e+00 0.000000000000e+00
-3.686868686870e+00 -5.000000000000e+00 0.000000000000e+00
-3.585858585860e+00 -5.000000000000e+00 0.000000000000e+00
-3.484848484850e+00 -5.000000000000e+00 0.000000000000e+00
-3.383838383840e+00 -5.000000000000e+00 0.000000000000e+00
-3.282828282830e+00 -5.000000000000e+00 0.000000000000e+00
-3.181818181820e+00 -5.000000000000e+00 0.000000000000e+00
-3.080808080810e+00 -5.000000000000e+00 0.000000000000e+00
-2.979797979800e+00 -5.000000000000e+00 0.000000000000e+00
-2.878787878790e+00 -5.000000000000e+00 0.000000000000e+00
-2.777777777780e+00 -5.000000000000e+00 0.000000000000e+00
-2.676767676770e+00 -5.000000000000e+00 0.000000000000e+00
-2.575757575760e+00 -5.000000000000e+00 0.000000000000e+00
-2.474747474750e+00 -5.000000000000e+00 0.000000000000e+00
-2.373737373740e+00 -5.000000000000e+00 0.000000000000e+00
-2.272727272730e+00 -5.000000000000e+00 0.000000000000e+00
-2.171717171720e+00 -5.000000000000e+00 0.000000000000e+00
-2.070707070710e+00 -5.000000000000e+00 0.000000000000e+00
-1.969696969700e+00 -5.000000000000e+00 0.000000000000e+00
-1.868686868690e+00 -5.000000000000e+00 0.000000000000e+00
-1.767676767680e+00 -5.000000000000e+00 0.000000000000e+00
-1.666666666670e+00 -5.000000000000e+00 0.000000000000e+00
-1.565656565660e+00 -5.000000000000e+00 0.000000000000e+00
-1.464646464650e+00 -5.000000000000e+00 0.000000000000e+00
-1.363636363640e+00 -5.000000000000e+00 0.000000000000e+00
-1.262626262630e+00 -5.000000000000e+00 0.000000000000e+00
-1.161616161620e+00 -5.000000000000e+00 0.000000000000e+00
-1.060606060610e+00 -5.000000000000e+00 0.000000000000e+00
-9.595959596003e-01 -5.000000000000e+00 0.000000000000e+00
-8.585858585903e-01 -5.000000000000e+00 0.000000000000e+00
-7.575757575804e-01 -5.000000000000e+00 0.000000000000e+00
-6.565656565704e-01 -5.000000000000e+00 0.000000000000e+00
-5.555555555604e-01 -5.000000000000e+00 0.000000000000e+00
-4.545454545504e-01 -5.000000000000e+00 0.000000000000e+00
-3.535353535405e-01 -5.000000000000e+00 0.000000000000e+00
-2.525252525305e-01 -5.000000000000e+00 0.000000000000e+00
-1.515151515205e-01 -5.000000000000e+00 0.000000000000e+00
-5.050505051054e-02 -5.000000000000e+00 0.000000000000e+00
5.050505049955e-02 -5.000000000000e+00 0.000000000000e+00
1.515151515097e-01 -5.000000000000e+00 0.000000000000e+00
2.525252525199e-01 -5.000000000000e+00 0.000000000000e+00
3.535353535301e-01 -5.000000000000e+00 0.000000000000e+00
4.545454545403e-01 -5.000000000000e+00 0.000000000000e+00
5.555555555505e-01 -5.000000000000e+00 0.000000000000e+00
6.565656565607e-01 -5.000000000000e+00 0.000000000000e+00
7.575757575709e-01 -5.000000000000e+00 0.000000000000e+00
8.585858585811e-01 -5.000000000000e+00 0.000000000000e+00
9.595959595913e-01 -5.000000000000e+00 0.000000000000e+00
1.060606060602e+00 -5.000000000000e+00 0.000000000000e+00
1.161616161612e+00 -5.000000000000e+00 0.000000000000e+00
1.262626262622e+00 -5.000000000000e+00 0.000000000000e+00
1.363636363632e+00 -5.000000000000e+00 0.000000000000e+00
1.464646464642e+00 -5.000000000000e+00 0.000000000000e+00
1.565656565653e+00 -5.000000000000e+00 0.000000000000e+00
1.666666666663e+00 -5.000000000000e+00 0.000000000000e+00
1.767676767673e+00 -5.000000000000e+00 0.000000000000e+00
1.868686868683e+00 -5.000000000000e+00 0.000000000000e+00
1.969696969693e+00 -5.000000000000e+00 0.000000000000e+00
2.070707070704e+00 -5.000000000000e+00 0.000000000000e+00
2.171717171714e+00 -5.000000000000e+00 0.000000000000e+00
2.272727272724e+00 -5.000000000000e+00 0.000000000000e+00
2.373737373734e+00 -5.000000000000e+00 0.000000000000e+00
2.474747474744e+00 -5.000000000000e+00 0.000000000000e+00
2.575757575755e+00 -5.000000000000e+00 0.000000000000e+00
2.676767676765e+00 -5.000000000000e+00 0.000000000000e+00
2.777777777775e+00 -5.000000000000e+00 0.000000000000e+00
2.878787878785e+00 -5.000000000000e+00 0.000000000000e+00
2.979797979795e+00 -5.000000000000e+00 0.000000000000e+00
3.080808080806e+00 -5.000000000000e+00 0.000000000000e+00
3.181818181816e+00 -5.000000000000e+00 0.000000000000e+00
3.282828282826e+00 -5.000000000000e+00 0.000000000000e+00
3.383838383836e+00 -5.000000000000e+00 0.000000000000e+00
3.484848484847e+00 -5.000000000000e+00 0.000000000000e+00
3.585858585857e+00 -5.000000000000e+00 0.000000000000e+00
3.686868686867e+00 -5.000000000000e+00 0.000000000000e+00
3.787878787877e+00 -5.000000000000e+00 0.000000000000e+00
3.888888888888e+00 -5.000000000000e+00 0.000000000000e+00
3.989898989898e+00 -5.000000000000e+00 0.000000000000e+00
4.090909090908e+00 -5.000000000000e+00 0.000000000000e+00
4.191919191918e+00 -5.000000000000e+00 0.000000000000e+00
4.292929292928e+00 -5.000000000000e+00 0.000000000000e+00
4.393939393939e+00 -5.000000000000e+00 0.000000000000e+00
4.494949494949e+00 -5.000000000000e+00 0.000000000000e+00
4.595959595959e+00 -5.000000000000e+00 0.000000000000e+00
4.696969696969e+00 -5.000000000000e+00 0.000000000000e+00
4.797979797980e+00 -5.000000000000e+00 0.000000000000e+00
4.898989898990e+00 -5.000000000000e+00 0.000000000000e+00
5.000000000000e+00 -5.000000000000e+00 0.000000000000e+00
5.000000000000e+00 -4.898989898990e+00 0.000000000000e+00
5.000000000000e+00 -4.797979797980e+00 0.000000000000e+00
5.000000000000e+00 -4.696969696970e+00 0.000000000000e+00
5.000000000000e+00 -4.595959595960e+00 0.000000000000e+00
5.000000000000e+00 -4.494949494950e+00 0.000000000000e+00
5.000000000000e+00 -4.393939393940e+00 0.000000000000e+00
5.000000000000e+00 -4.292929292930e+00 0.000000000000e+00
5.000000000000e+00 -4.191919191920e+00 0.000000000000e+00
5.000000000000e+00 -4.090909090910e+00 0.000000000000e+00
5.000000000000e+00 -3.989898989900e+00 0.000000000000e+00
5.000000000000e+00 -3.888888888890e+00 0.000000000000e+00
5.000000000000e+00 -3.787878787880e+00 0.000000000000e+00
5.000000000000e+00 -3.686868686870e+00 0.000000000000e+00
5.000000000000e+00 -3.585858585860e+00 0.000000000000e+00
5.000000000000e+00 -3.484848484850e+00 0.000000000000e+00
5.000000000000e+00 -3.383838383840e+00 0.000000000000e+00
5.000000000000e+00 -3.282828282830e+00 0.000000000000e+00
5.000000000000e+00 -3.181818181820e+00 0.000000000000e+00
5.000000000000e+00 -3.080808080810e+00 0.000000000000e+00
5.000000000000e+00 -2.979797979800e+00 0.000000000000e+00
5.000000000000e+00 -2.878787878790e+00 0.000000000000e+00
5.000000000000e+00 -2.777777777780e+00 0.000000000000e+00
5.000000000000e+00 -2.676767676770e+00 0.000000000000e+00
5.000000000000e+00 -2.575757575760e+00 0.000000000000e+00
5.000000000000e+00 -2.474747474750e+00 0.000000000000e+00
5.000000000000e+00 -2.373737373740e+00 0.000000000000e+00
5.000000000000e+00 -2.272727272730e+00 0.000000000000e+00
5.000000000000e+00 -2.171717171720e+00 0.000000000000e+00
5.000000000000e+00 -2.070707070710e+00 0.000000000000e+00
5.000000000000e+00 -1.969696969700e+00 0.000000000000e+00
5.000000000000e+00 -1.868686868690e+00 0.000000000000e+00
5.000000000000e+00 -1.767676767680e+00 0.000000000000e+00
5.000000000000e+00 -1.666666666670e+00 0.000000000000e+00
5.000000000000e+00 -1.565656565660e+00 0.000000000000e+00
5.000000000000e+00 -1.464646464650e+00 0.000000000000e+00
5.000000000000e+00 -1.363636363640e+00 0.000000000000e+00
5.000000000000e+00 -1.262626262630e+00 0.000000000000e+00
5.000000000000e+00 -1.161616161620e+00 0.000000000000e+00
5.000000000000e+00 -1.060606060610e+00 0.000000000000e+00
5.000000000000e+00 -9.595959596003e-01 0.000000000000e+00
5.000000000000e+00 -8.585858585903e-01 0.000000000000e+00
5.000000000000e+00 -7.575757575804e-01 0.000000000000e+00
5.000000000000e+00 -6.565656565704e-01 0.000000000000e+00
5.000000000000e+00 -5.555555555604e-01 0.000000000000e+00
5.000000000000e+00 -4.545454545504e-01 0.000000000000e+00
5.000000000000e+00 -3.535353535405e-01 0.000000000000e+00
5.000000000000e+00 -2.525252525305e-01 0.000000000000e+00
5.000000000000e+00 -1.515151515205e-01 0.000000000000e+00
5.000000000000e+00 -5.050505051054e-02 0.000000000000e+00
5.000000000000e+00 5.050505049955e-02 0.000000000000e+00
5.000000000000e+00 1.515151515097e-01 0.000000000000e+00
5.000000000000e+00 2.525252525199e-01 0.000000000000e+00
5.000000000000e+00 3.535353535301e-01 0.000000000000e+00
5.000000000000e+00 4.545454545403e-01 0.000000000000e+00
5.000000000000e+00 5.555555555505e-01 0.000000000000e+00
5.000000000000e+00 6.565656565607e-01 0.000000000000e+00
5.000000000000e+00 7.575757575709e-01 0.000000000000e+00
5.000000000000e+00 8.585858585811e-01 0.000000000000e+00
5.000000000000e+00 9.595959595913e-01 0.000000000000e+00
5.000000000000e+00 1.060606060602e+00 0.000000000000e+00
5.000000000000e+00 1.161616161612e+00 0.000000000000e+00
5.000000000000e+00 1.262626262622e+00 0.000000000000e+00
5.000000000000e+00 1.363636363632e+00 0.000000000000e+00
5.000000000000e+00 1.464646464642e+00 0.000000000000e+00
5.000000000000e+00 1.565656565653e+00 0.000000000000e+00
5.000000000000e+00 1.666666666663e+00 0.000000000000e+00
5.000000000000e+00 1.767676767673e+00 0.000000000000e+00
5.000000000000e+00 1.868686868683e+00 0.000000000000e+00
[...]
POINT_DATA 11568
SCALARS PRESSURE1 double 1
LOOKUP_TABLE default
2.000000000000e+06
1.989696641303e+06
1.979393496846e+06
1.969090745570e+06
1.958788576612e+06
1.948487350131e+06
1.938187098425e+06
1.927888008759e+06
1.917590507798e+06
1.907294658276e+06
1.897000750568e+06
1.886708995549e+06
1.876419708016e+06
1.866133126950e+06
1.855849491638e+06
1.845569131990e+06
1.835292061982e+06
1.825018981945e+06
1.814749979599e+06
1.804485347558e+06
1.794225488148e+06
1.783970541461e+06
1.773720951560e+06
1.763477193854e+06
1.753239489736e+06
1.743007585929e+06
1.732783006921e+06
1.722564850531e+06
1.712354233881e+06
1.702151337365e+06
1.691955949796e+06
1.681768888536e+06
1.671590518319e+06
1.661420551625e+06
1.651259440399e+06
1.641107364392e+06
1.630964164495e+06
1.620830135861e+06
1.610706300922e+06
1.600591050482e+06
1.590485002222e+06
1.580388715334e+06
1.570301423570e+06
1.560223987980e+06
1.550154742901e+06
1.540094031189e+06
1.530041643255e+06
1.519997636757e+06
1.509961914381e+06
1.499932916568e+06
1.489911487555e+06
1.479896258887e+06
1.469887461437e+06
1.459884430160e+06
1.449886556836e+06
1.439893266506e+06
1.429904537528e+06
1.419919235475e+06
1.409937330975e+06
1.399958133295e+06
1.389981211720e+06
1.380006057507e+06
1.370032264997e+06
1.360059390378e+06
1.350087044134e+06
1.340114788521e+06
1.330142246522e+06
1.320169138892e+06
1.310195188770e+06
1.300220012927e+06
1.290243316474e+06
1.280264925679e+06
1.270284802850e+06
1.260302547838e+06
1.250318203702e+06
1.240331437786e+06
1.230342296480e+06
1.220350692465e+06
1.210356526317e+06
1.200359765525e+06
1.190360598445e+06
1.180358851066e+06
1.170354579376e+06
1.160347887998e+06
1.150338729857e+06
1.140327397586e+06
1.130313980923e+06
1.120298332381e+06
1.110280684619e+06
1.100261229419e+06
1.090240222404e+06
1.080217508022e+06
1.070193444323e+06
1.060168104134e+06
1.050141707671e+06
1.040114460303e+06
1.030086486149e+06
1.020057947852e+06
1.010029063180e+06
1.000000000000e+06
1.000000000000e+06
1.000000000000e+06
1.000000000000e+06
1.000000000000e+06
1.000000000000e+06
1.000000000000e+06
1.000000000000e+06
1.000000000000e+06
1.000000000000e+06
1.000000000000e+06
1.000000000000e+06
1.000000000000e+06
1.000000000000e+06
1.000000000000e+06
1.000000000000e+06
1.000000000000e+06
1.000000000000e+06
1.000000000000e+06
1.000000000000e+06
1.000000000000e+06
1.000000000000e+06
1.000000000000e+06
1.000000000000e+06
1.000000000000e+06
1.000000000000e+06
1.000000000000e+06
1.000000000000e+06
1.000000000000e+06
1.000000000000e+06
1.000000000000e+06
1.000000000000e+06
1.000000000000e+06
1.000000000000e+06
1.000000000000e+06
1.000000000000e+06
1.000000000000e+06
1.000000000000e+06
1.000000000000e+06
1.000000000000e+06
1.000000000000e+06
1.000000000000e+06
1.000000000000e+06
1.000000000000e+06
1.000000000000e+06
1.000000000000e+06
1.000000000000e+06
1.000000000000e+06
1.000000000000e+06
1.000000000000e+06
1.000000000000e+06
1.000000000000e+06
1.000000000000e+06
1.000000000000e+06
1.000000000000e+06
1.000000000000e+06
1.000000000000e+06
1.000000000000e+06
1.000000000000e+06
1.000000000000e+06
1.000000000000e+06
1.000000000000e+06
1.000000000000e+06
1.000000000000e+06
1.000000000000e+06
1.000000000000e+06
1.000000000000e+06
1.000000000000e+06
1.000000000000e+06
1.000000000000e+06
1.000000000000e+06
1.000000000000e+06
1.000000000000e+06
1.000000000000e+06
1.000000000000e+06
1.000000000000e+06
1.000000000000e+06
1.000000000000e+06
1.000000000000e+06
1.000000000000e+06
1.000000000000e+06
1.000000000000e+06
1.000000000000e+06
1.000000000000e+06
1.000000000000e+06
1.000000000000e+06
1.000000000000e+06
1.000000000000e+06
1.000000000000e+06
1.000000000000e+06
1.000000000000e+06
1.000000000000e+06
1.000000000000e+06
1.000000000000e+06
1.000000000000e+06
1.000000000000e+06
1.000000000000e+06
1.000000000000e+06
1.000000000000e+06
1.000000000000e+06
1.010303275299e+06
1.020606338947e+06
1.030908998627e+06
1.041211013691e+06
1.051512249627e+06
1.061812478438e+06
1.072111376285e+06
1.082408828794e+06
1.092704572300e+06
1.102998365737e+06
1.113290049270e+06
1.123579330222e+06
1.133865854080e+06
1.144149569941e+06
1.154429722181e+06
1.164706595611e+06
1.174979768122e+06
1.185248694348e+06
1.195513384332e+06
1.205773192458e+06
1.216027957845e+06
1.226277562276e+06
1.236521499417e+06
1.246759428416e+06
1.256990831832e+06
1.267215492708e+06
1.277433375596e+06
1.287644230714e+06
1.297846725834e+06
1.308042276171e+06
1.318229615140e+06
1.328408261460e+06
1.338578157914e+06
1.348738953845e+06
1.358891675382e+06
1.369034504671e+06
1.379168741929e+06
1.389293210966e+06
1.399408730105e+06
1.409514467331e+06
1.419610673046e+06
1.429698014868e+06
1.439776034008e+06
1.449845438484e+06
1.459906236683e+06
1.469958221469e+06
1.480002609262e+06
1.490038763966e+06
1.500067302279e+06
1.510088936679e+06
1.520104080979e+06
1.530113336381e+06
1.540116738410e+06
1.550114617154e+06
1.560107920880e+06
1.570096933038e+06
1.580082175006e+06
1.590064217434e+06
1.600043553001e+06
1.610020567236e+06
1.619995782463e+06
1.629969601939e+06
1.639942525793e+06
1.649914958056e+06
1.659887254986e+06
1.669859795422e+06
1.679832947049e+06
1.689806967754e+06
1.699782159562e+06
1.709758808357e+06
1.719737079846e+06
1.729717301058e+06
1.739699465113e+06
1.749683908567e+06
1.759670736374e+06
1.769659754524e+06
1.779651172410e+06
1.789645453762e+06
1.799642095860e+06
1.809641195324e+06
1.819642797853e+06
1.829647023828e+06
1.839653706906e+06
1.849662686559e+06
1.859673909850e+06
1.869687348565e+06
1.879702914872e+06
1.889720435524e+06
1.899739769548e+06
1.909760766165e+06
1.919783321757e+06
1.929807314552e+06
1.939832551772e+06
1.949858845576e+06
1.959885960501e+06
1.969913838840e+06
1.979942247876e+06
1.989971038685e+06
2.000000000000e+06
2.000000000000e+06
2.000000000000e+06
2.000000000000e+06
2.000000000000e+06
2.000000000000e+06
2.000000000000e+06
2.000000000000e+06
2.000000000000e+06
2.000000000000e+06
2.000000000000e+06
2.000000000000e+06
2.000000000000e+06
2.000000000000e+06
2.000000000000e+06
2.000000000000e+06
2.000000000000e+06
2.000000000000e+06
2.000000000000e+06
2.000000000000e+06
2.000000000000e+06
2.000000000000e+06
2.000000000000e+06
2.000000000000e+06
2.000000000000e+06
2.000000000000e+06
2.000000000000e+06
2.000000000000e+06
2.000000000000e+06
2.000000000000e+06
2.000000000000e+06
2.000000000000e+06
2.000000000000e+06
2.000000000000e+06
2.000000000000e+06
2.000000000000e+06
2.000000000000e+06
2.000000000000e+06
2.000000000000e+06
2.000000000000e+06
2.000000000000e+06
2.000000000000e+06
2.000000000000e+06
2.000000000000e+06
2.000000000000e+06
2.000000000000e+06
2.000000000000e+06
2.000000000000e+06
2.000000000000e+06
2.000000000000e+06
2.000000000000e+06
2.000000000000e+06
2.000000000000e+06
2.000000000000e+06
2.000000000000e+06
2.000000000000e+06
2.000000000000e+06
2.000000000000e+06
2.000000000000e+06
2.000000000000e+06
2.000000000000e+06
2.000000000000e+06
2.000000000000e+06
2.000000000000e+06
2.000000000000e+06
2.000000000000e+06
2.000000000000e+06
2.000000000000e+06
2.000000000000e+06
2.000000000000e+06
2.000000000000e+06
2.000000000000e+06
2.000000000000e+06
2.000000000000e+06
2.000000000000e+06
2.000000000000e+06
2.000000000000e+06
2.000000000000e+06
2.000000000000e+06
2.000000000000e+06
2.000000000000e+06
2.000000000000e+06
2.000000000000e+06
2.000000000000e+06
2.000000000000e+06
2.000000000000e+06
2.000000000000e+06
2.000000000000e+06
2.000000000000e+06
2.000000000000e+06
2.000000000000e+06
2.000000000000e+06
2.000000000000e+06
2.000000000000e+06
2.000000000000e+06
2.000000000000e+06
2.000000000000e+06
2.000000000000e+06
2.000000000000e+06
1.517630811547e+06
1.516707985832e+06
1.515418927539e+06
1.513892189013e+06
1.512186475662e+06
1.510343646906e+06
1.508399791676e+06
1.506378175279e+06
1.504302751458e+06
1.502192174686e+06
1.500064220809e+06
1.497936217658e+06
1.495825030052e+06
1.493749504788e+06
1.491730329773e+06
1.489789258015e+06
1.487950744879e+06
1.486249431083e+06
1.484727599684e+06
1.483456818882e+06
1.482545358244e+06
1.009101808609e+06
1.981192974747e+06
1.955022953956e+06
1.948469822459e+06
1.957059238672e+06
1.957913543889e+06
1.955094701972e+06
1.946334320763e+06
1.978598746133e+06
1.968222099518e+06
1.975995054831e+06
1.957253820322e+06
1.947612635688e+06
1.949399603045e+06
1.967834723868e+06
1.973492397981e+06
1.975032866085e+06
1.025430237625e+06
1.015058789350e+06
1.968373701041e+06
1.964288926243e+06
1.960577745529e+06
1.951709558212e+06
1.961767946002e+06
1.958215441482e+06
1.950277257078e+06
1.950445396367e+06
1.938794070460e+06
1.017267683454e+06
1.011499718682e+06
1.966151862686e+06
1.971405807596e+06
1.982413108146e+06
1.976779068530e+06
1.009592883948e+06
1.027419061433e+06
1.020570518595e+06
1.029897152770e+06
1.978526271923e+06
1.969174016914e+06
1.983723285464e+06
1.965343302419e+06
1.965592412099e+06
1.987661011865e+06
1.986062913876e+06
1.035539490844e+06
1.038516969907e+06
1.028446534620e+06
1.026366550284e+06
1.047660673470e+06
1.989731009503e+06
1.973206684384e+06
1.017346587898e+06
1.016785221908e+06
1.963551991535e+06
1.991223737787e+06
1.993382650218e+06
1.940089943947e+06
1.945140782068e+06
1.982402652907e+06
1.976529023509e+06
1.983413480531e+06
1.969597748565e+06
1.959418233415e+06
1.939896526289e+06
1.029892354057e+06
1.038861726794e+06
1.038180587649e+06
1.857899410962e+06
1.855893513828e+06
1.847972641375e+06
1.068190994078e+06
1.077326149485e+06
1.063891002492e+06
1.081351186858e+06
1.073583520548e+06
1.071149356718e+06
1.725444206667e+06
1.937788517643e+06
1.933823680445e+06
1.876104970159e+06
1.877716115291e+06
1.886536508307e+06
1.832305719049e+06
1.836733679803e+06
1.844306845654e+06
1.121659429440e+06
1.132107427166e+06
1.123758813268e+06
1.011137351398e+06
1.846887017897e+06
1.085047081022e+06
1.096939064210e+06
1.092565805580e+06
1.165493527792e+06
1.156678853998e+06
1.162901929704e+06
1.936141657018e+06
1.940152254806e+06
1.927540710250e+06
1.903536203359e+06
1.892955887760e+06
1.898720228827e+06
1.536139999586e+06
1.541024496895e+06
1.547252787861e+06
1.968677568400e+06
1.969110047049e+06
1.959517089960e+06
1.928860643741e+06
1.920240550158e+06
1.918138257140e+06
1.863608961492e+06
1.871997580755e+06
1.863225709312e+06
1.974096215203e+06
1.977388034337e+06
1.966326092056e+06
1.866367196063e+06
1.873190679007e+06
1.959530425145e+06
1.948875570170e+06
1.955461413494e+06
1.077091508823e+06
1.085679757666e+06
1.067980485777e+06
1.031085336825e+06
1.027880381942e+06
1.035549904434e+06
1.040196192672e+06
1.034263021110e+06
1.032658697577e+06
1.881401306612e+06
1.891572153693e+06
1.884715992135e+06
1.926658859422e+06
1.930155302759e+06
1.919857058117e+06
1.887262173815e+06
1.881466213961e+06
1.854740928245e+06
1.856402476944e+06
1.863455382290e+06
1.861452844178e+06
1.098612605554e+06
1.103846949414e+06
1.094413876281e+06
1.941437684204e+06
1.887552870694e+06
1.892654208112e+06
1.922811033260e+06
1.033206473150e+06
1.038088050080e+06
1.027505009616e+06
1.894220786382e+06
1.901993796377e+06
1.903895949641e+06
1.059204006974e+06
1.055825939845e+06
1.078399177930e+06
1.010682440465e+06
1.043742728860e+06
1.044753054840e+06
1.054933670362e+06
1.963180782759e+06
1.954126416839e+06
1.952765055272e+06
1.896208561401e+06
1.895304097249e+06
1.904038556652e+06
1.931808672879e+06
1.023699711332e+06
1.098812425641e+06
1.090818674831e+06
1.092059898306e+06
1.876486920071e+06
1.871043893863e+06
1.166357800959e+06
1.154559657560e+06
1.162804321655e+06
1.908795158894e+06
1.908402346388e+06
1.916987452884e+06
1.010349348714e+06
1.020184060184e+06
1.919627376662e+06
1.926922035794e+06
1.921630942979e+06
1.872742335350e+06
1.874522893742e+06
1.865686186902e+06
1.852727371402e+06
1.896737918784e+06
1.886178239483e+06
1.048624888282e+06
1.038869891505e+06
1.040427397382e+06
1.162228594547e+06
1.915865214577e+06
1.893384415965e+06
1.940272914514e+06
1.947868440387e+06
1.040176505995e+06
1.033469504829e+06
1.035440430539e+06
1.940379456873e+06
1.933906812178e+06
1.927771564180e+06
1.882124202291e+06
1.039759868779e+06
1.043596408515e+06
1.041785111130e+06
1.978313750213e+06
1.869398499139e+06
1.897734946324e+06
1.908692200694e+06
1.845875914554e+06
1.911172518754e+06
1.900621999308e+06
1.139967288780e+06
1.151014082821e+06
1.146816403828e+06
1.037324866993e+06
1.982959149156e+06
1.975835350514e+06
1.927327727377e+06
1.935844245511e+06
1.151936071900e+06
1.923951380879e+06
1.913572578757e+06
1.919276827206e+06
1.946472964597e+06
1.956505702119e+06
1.024101210921e+06
1.913365785260e+06
1.903783065063e+06
1.911790914040e+06
1.926954424373e+06
1.831207987801e+06
1.835058345808e+06
1.823601855676e+06
1.904277734851e+06
1.894987677573e+06
1.944295168201e+06
1.144877303108e+06
1.900479590525e+06
1.938103213215e+06
1.067142155006e+06
1.062200308352e+06
1.070717939694e+06
1.942664698340e+06
1.954454263755e+06
1.953397799304e+06
1.978628677888e+06
1.974548091608e+06
1.918468884830e+06
1.912211789079e+06
1.922236321480e+06
1.019287192704e+06
1.028415360657e+06
1.090451138617e+06
1.083443092293e+06
1.992561298965e+06
1.939201019050e+06
1.500582990420e+06
1.497689979339e+06
1.505516031517e+06
1.993182776425e+06
1.904015893766e+06
1.022452430631e+06
1.133732132225e+06
1.131984460235e+06
1.993381371476e+06
1.819164791786e+06
1.825460963384e+06
1.814245783098e+06
1.934249769317e+06
1.946358826791e+06
1.930687395633e+06
1.081859202237e+06
1.089708306065e+06
1.960392658719e+06
1.930738374831e+06
1.960645763677e+06
1.957901706193e+06
1.080545281958e+06
1.505500289789e+06
1.518063767232e+06
1.512181543229e+06
1.467801757665e+06
1.468385742716e+06
1.459341222538e+06
1.949898848075e+06
1.960952708732e+06
1.828502101013e+06
1.917487535302e+06
1.501958430952e+06
1.492419066084e+06
1.992259898242e+06
1.114700880380e+06
1.118631936852e+06
1.109381091051e+06
1.517778352928e+06
1.526362730187e+06
1.515553665344e+06
1.529041977386e+06
1.105836408465e+06
1.115506773896e+06
1.105635401230e+06
1.114256110414e+06
1.048084483632e+06
1.051040680082e+06
1.511415712548e+06
1.523036935045e+06
1.516580752601e+06
1.038210996320e+06
1.027658338785e+06
1.092321379426e+06
1.140729116859e+06
1.133424445582e+06
1.143527978521e+06
1.050102705754e+06
1.057762388703e+06
1.863859367475e+06
1.042000790380e+06
1.034493688044e+06
1.969654901253e+06
1.922965773335e+06
1.067408465357e+06
1.059854271262e+06
1.054836692967e+06
1.900979468424e+06
1.138419227309e+06
1.051469743189e+06
1.044791171644e+06
1.851624746608e+06
1.985745638688e+06
1.984327552378e+06
1.936099181412e+06
1.925187362933e+06
1.909758158672e+06
1.918911133027e+06
1.083825356595e+06
1.091226723157e+06
1.047430253943e+06
1.837811541240e+06
1.941645653532e+06
1.142319162970e+06
1.928869934555e+06
1.038912061616e+06
1.040259471615e+06
1.043845123914e+06
1.052291783012e+06
1.032862414455e+06
1.031008208768e+06
1.931326104193e+06
1.007579731071e+06
1.011739512386e+06
1.017653995832e+06
1.990892089799e+06
1.989305618560e+06
1.117546928336e+06
1.047797595508e+06
1.010857999197e+06
1.010063666282e+06
1.011254019750e+06
1.008537016654e+06
1.016955206171e+06
1.991050089954e+06
1.009509007167e+06
1.911956928285e+06
1.089092521387e+06
1.876686627687e+06
1.991653451652e+06
1.856208056041e+06
1.834407803381e+06
1.992721259705e+06
1.989019297434e+06
1.211215536962e+06
1.008639155084e+06
1.695633321287e+06
1.008024673698e+06
1.274135108545e+06
1.715986740536e+06
1.708530197462e+06
1.012059839377e+06
1.992849237195e+06
1.456227108506e+06
1.500583556016e+06
1.510760956537e+06
1.489836767165e+06
1.008433453604e+06
1.028967236336e+06
1.022675707421e+06
1.029651772647e+06
1.021947769300e+06
1.030812066146e+06
1.971383999414e+06
1.982411679792e+06
1.042523786190e+06
1.900086234574e+06
1.902814301188e+06
1.894045777136e+06
1.888787773232e+06
1.016417701162e+06
1.062714365914e+06
1.082131688105e+06
1.990864755070e+06
1.754053730336e+06
1.751612086325e+06
1.741334594821e+06
1.057560482525e+06
1.052209707953e+06
1.063005936524e+06
1.483861097218e+06
1.481506552095e+06
1.491221173679e+06
1.453217078761e+06
1.448609289034e+06
1.443926931357e+06
1.117912231297e+06
1.111993947066e+06
1.123399762078e+06
1.548647961789e+06
1.559095707249e+06
1.555994783966e+06
1.566157688895e+06
1.314307637360e+06
1.305455394094e+06
1.306677590284e+06
1.485899742943e+06
1.478362946603e+06
1.474543643355e+06
1.491572861114e+06
1.495984350139e+06
1.501903770260e+06
1.315946825055e+06
1.310978401058e+06
1.319163759682e+06
1.282914331362e+06
1.278855920061e+06
1.289070151740e+06
1.080722686224e+06
1.921517331612e+06
1.914416309092e+06
1.916848088163e+06
1.168003562850e+06
1.167184236971e+06
1.177558014869e+06
1.814957841340e+06
1.822181171618e+06
1.822072981036e+06
1.810349591256e+06
1.363478736751e+06
1.353915571285e+06
1.363050595339e+06
1.642751265722e+06
1.635469055594e+06
1.643448256306e+06
1.723863102054e+06
1.733780878820e+06
1.735446874662e+06
1.526652124416e+06
1.523109755259e+06
1.532656610756e+06
1.850342222378e+06
1.848982600839e+06
1.840549761515e+06
1.186706229294e+06
1.197399865828e+06
1.192100842849e+06
1.148743285237e+06
1.161396481427e+06
1.153299887859e+06
1.445051352855e+06
1.451349452043e+06
1.440031758441e+06
1.450680253718e+06
1.446718603241e+06
1.441177691493e+06
1.481159481232e+06
1.472637561547e+06
1.480859514453e+06
1.478210799012e+06
1.936150597847e+06
1.928121219515e+06
1.926112879925e+06
1.618598318408e+06
1.630119378041e+06
1.624872943337e+06
1.823883264476e+06
1.821496279616e+06
1.813217677085e+06
1.397405712066e+06
1.405391888373e+06
1.407878600240e+06
1.295770705560e+06
1.773284631016e+06
1.765216544078e+06
1.762540050763e+06
1.837601777410e+06
1.603288382907e+06
1.601229673720e+06
1.611518697999e+06
1.969093089912e+06
1.980356952166e+06
1.973909314382e+06
1.708847690612e+06
1.701086429549e+06
1.709655545614e+06
1.422619139005e+06
1.425398168874e+06
1.415413172230e+06
1.292936159999e+06
1.292499753814e+06
1.301562517607e+06
1.023755970806e+06
1.033551025778e+06
1.033996842653e+06
1.025567581574e+06
1.799500096374e+06
1.802743423678e+06
1.791848999401e+06
1.179376316828e+06
1.170503165828e+06
1.168564225072e+06
1.551053322371e+06
1.537950569517e+06
1.544451233398e+06
1.518062974085e+06
1.505899302417e+06
1.509027105812e+06
1.727213654118e+06
1.724104700158e+06
1.718114324507e+06
1.735310996888e+06
1.615771151450e+06
1.622899558074e+06
1.613588227705e+06
1.457061692435e+06
1.462629540033e+06
1.467821481092e+06
1.709252162974e+06
1.706945431130e+06
1.698490910432e+06
1.496363880241e+06
1.500674875453e+06
1.488907481165e+06
1.234574218139e+06
1.229428018516e+06
1.238324744992e+06
1.984083068119e+06
1.869238119845e+06
1.881317985444e+06
1.878098355980e+06
1.482285644803e+06
1.482848397234e+06
1.823924282410e+06
1.813438606974e+06
1.821123869633e+06
1.027377590277e+06
1.951022512034e+06
1.941548303408e+06
1.945065323034e+06
1.947709451602e+06
1.218667823266e+06
1.208499056314e+06
1.219648649780e+06
1.157298433759e+06
1.428161536179e+06
1.436048487552e+06
1.438392459581e+06
1.427965616775e+06
1.523845489181e+06
1.532684348283e+06
1.524114284905e+06
1.155815919627e+06
1.153255472449e+06
1.144313829579e+06
1.273312799153e+06
1.267007653634e+06
1.280813929364e+06
1.977169445821e+06
1.589366169669e+06
1.589946398029e+06
1.601445275754e+06
1.586571903938e+06
1.577748736699e+06
1.177478560669e+06
1.170006652931e+06
1.166735823369e+06
1.581540860775e+06
1.594094221879e+06
1.588360973611e+06
1.036498087064e+06
1.026032131772e+06
1.023562981207e+06
1.489521682169e+06
1.492613142100e+06
1.500034547868e+06
1.633473944226e+06
1.242947225786e+06
1.238122573883e+06
1.228881713358e+06
1.455139747365e+06
1.441838381681e+06
1.477204244177e+06
1.476360649399e+06
1.485954099631e+06
1.856336348158e+06
1.863170120199e+06
1.858287357042e+06
1.868320129995e+06
1.174020241458e+06
1.176909305550e+06
1.186079492907e+06
1.689752851325e+06
1.686586411618e+06
1.441354094796e+06
1.431949377635e+06
1.431361830186e+06
1.255839233139e+06
1.250886624220e+06
1.260541371640e+06
1.967036824579e+06
1.978783734992e+06
1.971440824003e+06
1.180996694073e+06
1.193502809174e+06
1.187814255173e+06
1.664870860130e+06
1.655836706534e+06