<?xml version="1.0"?>
<!-- Time step: 1 | Time: 8.640000000000e+03 -->
<VTKFile type="UnstructuredGrid" version="0.1" byte_order="LittleEndian">
  <UnstructuredGrid>
    <Piece NumberOfPoints="4239" NumberOfCells="8285">
      <Points>
        <DataArray type="Float64" NumberOfComponents="3" format="ascii">
          0.000000000000e+00 0.000000000000e+00 -3.000000000000e+02
          0.000000000000e+00 0.000000000000e+00 -3.200000033858e+02
          0.000000000000e+00 0.000000000000e+00 -3.400000067716e+02
          0.000000000000e+00 0.000000000000e+00 -3.600000101574e+02
          0.000000000000e+00 0.000000000000e+00 -3.800000135432e+02
          0.000000000000e+00 0.000000000000e+00 -4.000000169290e+02
          0.000000000000e+00 0.000000000000e+00 -4.200000203148e+02
          0.000000000000e+00 0.000000000000e+00 -4.400000237006e+02
          0.000000000000e+00 0.000000000000e+00 -4.600000270864e+02
          0.000000000000e+00 0.000000000000e+00 -4.800000304722e+02
          0.000000000000e+00 0.000000000000e+00 -5.000000338580e+02
          1.912732711206e+01 0.000000000000e+00 -5.000000671490e+02
          3.825465422413e+01 0.000000000000e+00 -5.000001004400e+02
          5.738198133619e+01 0.000000000000e+00 -5.000001337310e+02
          7.650930844825e+01 0.000000000000e+00 -5.000001670220e+02
          9.563663556031e+01 0.000000000000e+00 -5.000002003130e+02
          1.147639626724e+02 0.000000000000e+00 -5.000002336040e+02
          1.338912897844e+02 0.000000000000e+00 -5.000002668950e+02
          1.530186168965e+02 0.000000000000e+00 -5.000003001860e+02
          1.721459440086e+02 0.000000000000e+00 -5.000003334770e+02
          1.912732711206e+02 0.000000000000e+00 -5.000003667679e+02
          2.104005982327e+02 0.000000000000e+00 -5.000004000589e+02
          2.295279253448e+02 0.000000000000e+00 -5.000004333499e+02
          2.486552524568e+02 0.000000000000e+00 -5.000004666409e+02
          2.677825795689e+02 0.000000000000e+00 -5.000004999319e+02
          2.869099066809e+02 0.000000000000e+00 -5.000005332229e+02
          3.060372337930e+02 0.000000000000e+00 -5.000005665139e+02
          3.251645609051e+02 0.000000000000e+00 -5.000005998049e+02
          3.286911500212e+02 0.000000000000e+00 -4.800002834446e+02
          3.322177391373e+02 0.000000000000e+00 -4.599999670842e+02
          3.357443282534e+02 0.000000000000e+00 -4.399996507239e+02
          3.392709173695e+02 0.000000000000e+00 -4.199993343636e+02
          3.427975064856e+02 0.000000000000e+00 -3.999990180032e+02
          3.633680000000e+02 0.000000000000e+00 -4.000000000000e+02
          3.601600320156e+02 0.000000000000e+00 -4.182447086488e+02
          3.569520640312e+02 0.000000000000e+00 -4.364894172977e+02
          3.537440960467e+02 0.000000000000e+00 -4.547341259465e+02
          3.505361280623e+02 0.000000000000e+00 -4.729788345954e+02
          3.473281600779e+02 0.000000000000e+00 -4.912235432442e+02
          3.441201920935e+02 0.000000000000e+00 -5.094682518931e+02
          3.409122241091e+02 0.000000000000e+00 -5.277129605419e+02
          3.377042561247e+02 0.000000000000e+00 -5.459576691908e+02
          3.344962881402e+02 0.000000000000e+00 -5.642023778396e+02
          3.312883201558e+02 0.000000000000e+00 -5.824470864885e+02
          3.280803521714e+02 0.000000000000e+00 -6.006917951373e+02
          3.471443404324e+02 0.000000000000e+00 -6.006974714707e+02
          3.662083286933e+02 0.000000000000e+00 -6.007031478041e+02
          3.852723169543e+02 0.000000000000e+00 -6.007088241375e+02
          4.043363052152e+02 0.000000000000e+00 -6.007145004709e+02
          4.234002934762e+02 0.000000000000e+00 -6.007201768043e+02
          4.424642817371e+02 0.000000000000e+00 -6.007258531377e+02
          4.615282699981e+02 0.000000000000e+00 -6.007315294711e+02
          4.805922582590e+02 0.000000000000e+00 -6.007372058045e+02
          4.996562465200e+02 0.000000000000e+00 -6.007428821379e+02
          5.187202347809e+02 0.000000000000e+00 -6.007485584713e+02
          5.377842230419e+02 0.000000000000e+00 -6.007542348047e+02
          5.568482113029e+02 0.000000000000e+00 -6.007599111382e+02
          5.759121995638e+02 0.000000000000e+00 -6.007655874716e+02
          5.949761878248e+02 0.000000000000e+00 -6.007712638050e+02
          6.140401760857e+02 0.000000000000e+00 -6.007769401384e+02
          6.331041643467e+02 0.000000000000e+00 -6.007826164718e+02
          6.521681526076e+02 0.000000000000e+00 -6.007882928052e+02
          6.712321408686e+02 0.000000000000e+00 -6.007939691386e+02
          6.902961291295e+02 0.000000000000e+00 -6.007996454720e+02
          7.093601173905e+02 0.000000000000e+00 -6.008053218054e+02
          7.284241056514e+02 0.000000000000e+00 -6.008109981388e+02
          7.474880939124e+02 0.000000000000e+00 -6.008166744722e+02
          7.665520821733e+02 0.000000000000e+00 -6.008223508056e+02
          7.856160704343e+02 0.000000000000e+00 -6.008280271390e+02
          8.046800586952e+02 0.000000000000e+00 -6.008337034724e+02
          8.237440469562e+02 0.000000000000e+00 -6.008393798058e+02
          8.428080352171e+02 0.000000000000e+00 -6.008450561392e+02
          8.618720234781e+02 0.000000000000e+00 -6.008507324726e+02
          8.809360117390e+02 0.000000000000e+00 -6.008564088060e+02
          9.000000000000e+02 0.000000000000e+00 -6.008620851394e+02
          9.000000000000e+02 0.000000000000e+00 -5.820582048182e+02
          9.000000000000e+02 0.000000000000e+00 -5.632543244970e+02
          9.000000000000e+02 0.000000000000e+00 -5.444504441758e+02
          9.000000000000e+02 0.000000000000e+00 -5.256465638546e+02
          9.000000000000e+02 0.000000000000e+00 -5.068426835333e+02
          9.000000000000e+02 0.000000000000e+00 -4.880388032121e+02
          9.000000000000e+02 0.000000000000e+00 -4.692349228909e+02
          9.000000000000e+02 0.000000000000e+00 -4.504310425697e+02
          9.000000000000e+02 0.000000000000e+00 -4.316271622485e+02
          9.000000000000e+02 0.000000000000e+00 -4.128232819273e+02
          9.000000000000e+02 0.000000000000e+00 -3.940194016061e+02
          9.000000000000e+02 0.000000000000e+00 -3.752155212849e+02
          9.000000000000e+02 0.000000000000e+00 -3.564116409636e+02
          9.000000000000e+02 0.000000000000e+00 -3.376077606424e+02
          9.000000000000e+02 0.000000000000e+00 -3.188038803212e+02
          9.000000000000e+02 0.000000000000e+00 -3.000000000000e+02
          8.808510638298e+02 0.000000000000e+00 -3.000000000000e+02
          8.617021276596e+02 0.000000000000e+00 -3.000000000000e+02
          8.425531914894e+02 0.000000000000e+00 -3.000000000000e+02
          8.234042553191e+02 0.000000000000e+00 -3.000000000000e+02
          8.042553191489e+02 0.000000000000e+00 -3.000000000000e+02
          7.851063829787e+02 0.000000000000e+00 -3.000000000000e+02
          7.659574468085e+02 0.000000000000e+00 -3.000000000000e+02
          7.468085106383e+02 0.000000000000e+00 -3.000000000000e+02
          7.276595744681e+02 0.000000000000e+00 -3.000000000000e+02
          7.085106382979e+02 0.000000000000e+00 -3.000000000000e+02
          6.893617021277e+02 0.000000000000e+00 -3.000000000000e+02
          6.702127659574e+02 0.000000000000e+00 -3.000000000000e+02
          6.510638297872e+02 0.000000000000e+00 -3.000000000000e+02
          6.319148936170e+02 0.000000000000e+00 -3.000000000000e+02
          6.127659574468e+02 0.000000000000e+00 -3.000000000000e+02
          5.936170212766e+02 0.000000000000e+00 -3.000000000000e+02
          5.744680851064e+02 0.000000000000e+00 -3.000000000000e+02
          5.553191489362e+02 0.000000000000e+00 -3.000000000000e+02
          5.361702127660e+02 0.000000000000e+00 -3.000000000000e+02
          5.170212765957e+02 0.000000000000e+00 -3.000000000000e+02
          4.978723404255e+02 0.000000000000e+00 -3.000000000000e+02
          4.787234042553e+02 0.000000000000e+00 -3.000000000000e+02
          4.595744680851e+02 0.000000000000e+00 -3.000000000000e+02
          4.404255319149e+02 0.000000000000e+00 -3.000000000000e+02
          4.212765957447e+02 0.000000000000e+00 -3.000000000000e+02
          4.021276595745e+02 0.000000000000e+00 -3.000000000000e+02
          3.829787234043e+02 0.000000000000e+00 -3.000000000000e+02
          3.638297872340e+02 0.000000000000e+00 -3.000000000000e+02
          3.446808510638e+02 0.000000000000e+00 -3.000000000000e+02
          3.255319148936e+02 0.000000000000e+00 -3.000000000000e+02
          3.063829787234e+02 0.000000000000e+00 -3.000000000000e+02
          2.872340425532e+02 0.000000000000e+00 -3.000000000000e+02
          2.680851063830e+02 0.000000000000e+00 -3.000000000000e+02
          2.489361702128e+02 0.000000000000e+00 -3.000000000000e+02
          2.297872340426e+02 0.000000000000e+00 -3.000000000000e+02
          2.106382978723e+02 0.000000000000e+00 -3.000000000000e+02
          1.914893617021e+02 0.000000000000e+00 -3.000000000000e+02
          1.723404255319e+02 0.000000000000e+00 -3.000000000000e+02
          1.531914893617e+02 0.000000000000e+00 -3.000000000000e+02
          1.340425531915e+02 0.000000000000e+00 -3.000000000000e+02
          1.148936170213e+02 0.000000000000e+00 -3.000000000000e+02
          9.574468085106e+01 0.000000000000e+00 -3.000000000000e+02
          7.659574468085e+01 0.000000000000e+00 -3.000000000000e+02
          5.744680851064e+01 0.000000000000e+00 -3.000000000000e+02
          3.829787234043e+01 0.000000000000e+00 -3.000000000000e+02
          1.914893617021e+01 0.000000000000e+00 -3.000000000000e+02
          8.875310861917e+02 0.000000000000e+00 -5.885021893492e+02
          1.244858699708e+01 0.000000000000e+00 -3.126391296399e+02
          8.873857506203e+02 0.000000000000e+00 -3.123845169440e+02
          1.262677308526e+01 0.000000000000e+00 -4.869517013229e+02
          3.123565098502e+02 0.000000000000e+00 -4.842228482756e+02
[...]
      <PointData Scalars="PRESSURE1">
        <DataArray type="Float64" Name="PRESSURE1" format="ascii">
          3.000000000000e+06 3.195807631635e+06 3.391615263290e+06 3.587422894983e+06 3.783230526727e+06 3.979038158539e+06 4.174845790433e+06 4.370653422416e+06 4.566461054494e+06 4.762268686667e+06 4.958076318943e+06 4.958076644832e+06 4.958076970629e+06 4.958077296337e+06 4.958077621951e+06 4.958077947463e+06 4.958078272867e+06 4.958078598154e+06 4.958078923314e+06 4.958079248336e+06 4.958079573209e+06 4.958079897924e+06 4.958080222473e+06 4.958080546856e+06 4.958080871091e+06 4.958081195236e+06 4.958081519371e+06 4.958081843670e+06 4.762271143719e+06 4.566460442924e+06 4.370649741001e+06 4.174839038078e+06 3.979028337297e+06 3.979037919988e+06 4.157660571389e+06 4.336283214714e+06 4.514905852569e+06 4.693528487978e+06 4.872151122023e+06 5.050773755217e+06 5.229396387830e+06 5.408019020035e+06 5.586641651941e+06 5.765264283618e+06 5.943886915118e+06 5.943942488384e+06 5.943998061807e+06 5.944053635373e+06 5.944109209087e+06 5.944164782940e+06 5.944220356912e+06 5.944275930976e+06 5.944331505104e+06 5.944387079272e+06 5.944442653452e+06 5.944498227632e+06 5.944553801793e+06 5.944609375929e+06 5.944664950029e+06 5.944720524092e+06 5.944776098111e+06 5.944831672085e+06 5.944887246014e+06 5.944942819900e+06 5.944998393742e+06 5.945053967544e+06 5.945109541304e+06 5.945165115025e+06 5.945220688709e+06 5.945276262355e+06 5.945331835967e+06 5.945387409542e+06 5.945442983085e+06 5.945498556595e+06 5.945554130072e+06 5.761456996721e+06 5.577359863404e+06 5.393262730119e+06 5.209165596866e+06 5.025068463649e+06 4.840971330464e+06 4.656874197309e+06 4.472777064185e+06 4.288679931091e+06 4.104582798025e+06 3.920485664982e+06 3.736388531960e+06 3.552291398955e+06 3.368194265963e+06 3.184097132979e+06 3.000000000000e+06 3.000000000000e+06 3.000000000000e+06 3.000000000000e+06 3.000000000000e+06 3.000000000000e+06 3.000000000000e+06 3.000000000000e+06 3.000000000000e+06 3.000000000000e+06 3.000000000000e+06 3.000000000000e+06 3.000000000000e+06 3.000000000000e+06 3.000000000000e+06 3.000000000000e+06 3.000000000000e+06 3.000000000000e+06 3.000000000000e+06 3.000000000000e+06 3.000000000000e+06 3.000000000000e+06 3.000000000000e+06 3.000000000000e+06 3.000000000000e+06 3.000000000000e+06 3.000000000000e+06 3.000000000000e+06 3.000000000000e+06 3.000000000000e+06 3.000000000000e+06 3.000000000000e+06 3.000000000000e+06 3.000000000000e+06 3.000000000000e+06 3.000000000000e+06 3.000000000000e+06 3.000000000000e+06 3.000000000000e+06 3.000000000000e+06 3.000000000000e+06 3.000000000000e+06 3.000000000000e+06 3.000000000000e+06 3.000000000000e+06 3.000000000000e+06 3.000000000000e+06 5.824546053822e+06 3.123741881085e+06 3.121249126444e+06 4.830328185599e+06 4.803611660337e+06 4.800841846043e+06 3.148016484766e+06 3.271740485886e+06 5.674790481562e+06 5.795400926413e+06 3.150906102326e+06 4.812390583170e+06 3.275253414899e+06 4.672285149877e+06 4.638201917548e+06 4.691917329940e+06 4.803284889520e+06 4.658439685155e+06 4.796476827023e+06 4.793747517520e+06 4.792345353208e+06 4.791172346460e+06 4.790205006126e+06 4.790239023144e+06 4.792157679968e+06 4.795431162140e+06 4.798062848890e+06 4.798008294420e+06 4.794176979348e+06 4.788775211550e+06 4.457865237141e+06 4.546029200547e+06 4.256173124061e+06 4.068623214843e+06 4.597443363476e+06 3.164660427466e+06 3.169893190093e+06 3.168377890227e+06 3.165603153661e+06 3.163361065997e+06 3.161982986793e+06 3.161373412931e+06 3.161300725685e+06 3.161495924614e+06 3.161744150184e+06 3.161928710519e+06 3.161998721597e+06 3.161905336996e+06 3.161590042876e+06 3.161075890188e+06 3.160558331705e+06 3.160313201237e+06 3.160467571903e+06 3.160905501164e+06 3.161405516542e+06 3.161812917292e+06 3.162082717300e+06 3.162234663635e+06 3.162308218398e+06 3.162339201273e+06 3.162351098889e+06 3.162355651462e+06 3.162357414101e+06 3.162357972135e+06 3.162358132661e+06 3.162358344584e+06 3.162358367295e+06 3.162357130070e+06 3.162352071959e+06 3.162334669709e+06 3.162278890368e+06 3.162124613510e+06 3.161773501477e+06 3.161143827960e+06 3.160334480385e+06 3.160136462970e+06 3.162020115742e+06 3.164815646859e+06 3.458583140395e+06 3.648631694413e+06 3.833062273834e+06 4.015646658531e+06 4.198326696360e+06 4.381631908504e+06 4.565540533119e+06 4.749719289498e+06 4.933600294976e+06 5.116886958773e+06 5.300875321966e+06 5.489448930354e+06 5.781553599940e+06 5.783157724218e+06 5.783230074619e+06 5.781460136611e+06 5.780034329038e+06 5.780099063355e+06 5.781257425955e+06 5.782479097321e+06 5.783157116027e+06 5.783302100332e+06 5.783173493943e+06 5.782982840209e+06 5.782830845013e+06 5.782748959445e+06 5.782735919220e+06 5.782773203845e+06 5.782833560395e+06 5.782886096047e+06 5.782900053940e+06 5.782884051787e+06 5.782954056968e+06 5.783110955487e+06 5.782484633167e+06 5.778849967183e+06 5.770083604569e+06 5.757358836661e+06 5.756817949920e+06 5.543479401834e+06 5.319790722548e+06 5.141771374659e+06 4.978711755457e+06 4.810083096275e+06 4.629287026918e+06 4.444966601309e+06 4.267706421481e+06 4.088309714429e+06 5.585041817411e+06 5.389487702411e+06 5.205255660780e+06 5.065547481264e+06 5.610026026502e+06 5.620973463889e+06 5.622368415299e+06 4.931122420405e+06 5.621402743541e+06 5.621119109242e+06 5.621299935357e+06 5.621299114268e+06 5.621095510054e+06 5.620838871774e+06 5.620623832918e+06 5.620509736928e+06 5.620544295652e+06 5.620755580676e+06 5.621126111898e+06 5.621533838217e+06 5.621631199430e+06 5.620745743409e+06 5.618216003944e+06 5.614477076848e+06 5.612015985286e+06 5.613748888184e+06 5.619251814021e+06 5.623634129213e+06 5.619212756575e+06 5.600551929966e+06 3.467636249425e+06 3.676814975718e+06 3.883346830557e+06 4.080879321504e+06 4.276306735184e+06 4.476231600583e+06 3.325137338250e+06 3.345875174209e+06 3.341640407731e+06 3.334447220274e+06 3.328653255812e+06 3.324802078738e+06 3.322713013832e+06 3.322050131674e+06 3.322287084084e+06 3.322863088344e+06 3.323390565987e+06 3.323673324575e+06 3.323579351812e+06 3.322920471022e+06 3.321570971777e+06 3.319858021984e+06 3.318633965465e+06 3.318613128915e+06 3.319713560059e+06 3.321254623467e+06 3.322628057180e+06 3.323599065856e+06 3.324183416680e+06 3.324487033617e+06 3.324625019487e+06 3.324682191202e+06 3.324705303821e+06 3.324714407040e+06 3.324717048136e+06 3.324716983869e+06 3.324716899464e+06 3.324717834940e+06 3.324718461623e+06 3.324714219113e+06 3.324691315398e+06 3.324613945332e+06 3.324410137081e+06 3.323949934982e+06 3.323029893628e+06 3.321503016347e+06 3.319444618821e+06 3.319813269123e+06 3.328561674003e+06 4.635209958105e+06 4.460346039693e+06 4.624164388673e+06 4.638548657587e+06 4.642173192889e+06 4.637936625557e+06 4.629551740548e+06 4.622511441629e+06 4.620834317821e+06 4.622722054417e+06 4.625080850493e+06 4.627138262379e+06 4.629456550137e+06 4.461769438416e+06 3.348440760004e+06 3.563497657568e+06 3.502248182702e+06 3.475687767065e+06 3.749114332127e+06 3.928895426073e+06 4.109107198744e+06 3.675602101843e+06 3.623373280168e+06 4.290993918121e+06 3.846219897899e+06 4.021103002402e+06 4.200615777984e+06 3.770535693367e+06 4.474455235487e+06 4.383188897162e+06 4.659009642174e+06 4.843550776290e+06 5.026418813940e+06 5.206890048483e+06 5.389980822922e+06 5.453601766438e+06 5.288780372446e+06 5.472606172763e+06 5.350524771858e+06 5.119117558581e+06 5.213130138790e+06 4.568181232602e+06 4.754562931122e+06 4.939682690716e+06 5.040933348708e+06 3.474334599130e+06 3.607022588058e+06 3.710328715870e+06 3.481135202155e+06 3.483817190862e+06 3.485479078788e+06 3.486328058490e+06 3.486787956166e+06 3.487007624987e+06 3.487076953779e+06 3.487086302888e+06 3.487084321550e+06 3.487083271122e+06 3.487085155042e+06 3.487089345536e+06 3.487090790831e+06 3.487080912720e+06 3.487048295732e+06 3.486970417148e+06 3.486789024259e+06 3.486371942810e+06 3.485492686877e+06 3.483877449612e+06 3.481319846004e+06 3.477848808314e+06 3.474271862808e+06 3.472473856843e+06 3.473942382417e+06 3.477848077917e+06 3.481731505665e+06 3.484044128580e+06 3.484899125071e+06 3.484831612003e+06 3.484134969687e+06 3.483067848735e+06 3.482124583871e+06 3.482189098716e+06 3.484295913599e+06 3.488965156402e+06 3.496411812231e+06 3.507798007127e+06 5.463514078365e+06 5.324478654953e+06 5.448143054380e+06 5.438813392831e+06 5.441472632290e+06 5.450283012376e+06 5.457083226216e+06 5.459794096502e+06 5.459911138161e+06 5.459176199252e+06 5.458414702322e+06 5.457912462740e+06 5.457732934537e+06 5.457844892557e+06 5.458187670096e+06 5.458706256986e+06 5.459323645508e+06 5.459767709224e+06 5.459368435687e+06 5.458163669044e+06 5.459620945655e+06 5.464998283043e+06 5.465102347295e+06 5.438040572779e+06 5.155165857319e+06 3.643357537021e+06 3.715724213065e+06 3.525015309570e+06 3.550010690341e+06 3.789194431821e+06 3.720586631422e+06 3.685083796689e+06 3.990401984156e+06 4.180660102450e+06 4.374058746581e+06 4.445689366332e+06 4.481066171262e+06 4.267829871817e+06 4.329868149840e+06 4.093934048503e+06 3.913837110025e+06 4.182690161540e+06 4.028141496123e+06 3.861036126371e+06 3.665862573225e+06 3.831840540083e+06 3.654962058170e+06 3.821533207793e+06 3.646967602497e+06 3.641994391329e+06 3.812847837473e+06 3.801303237314e+06 4.493163376432e+06 4.356191825478e+06 4.246535204279e+06 4.130518295467e+06 3.987847067542e+06 4.489278019922e+06 4.475183292964e+06 4.455848619178e+06 4.447583369338e+06 4.452151418019e+06 4.456645034829e+06 4.459756623467e+06 4.461410155430e+06 3.640990344340e+06 3.798026237588e+06 3.642294892276e+06 3.644116243111e+06 3.645490875374e+06 3.645978752973e+06 3.645290348785e+06 3.642841824699e+06 3.636743445967e+06 3.627290952603e+06 3.620399316909e+06 3.621346215739e+06 3.628386214368e+06 3.636029191467e+06 3.641684867638e+06 3.645455930826e+06 3.647614497886e+06 3.648672970036e+06 3.649153805756e+06 3.649379817966e+06 3.649487818304e+06 3.649528082478e+06 3.649528387118e+06 3.649512548936e+06 3.649496065208e+06 3.649481755153e+06 3.649473313245e+06 3.649488328672e+06 3.649505164430e+06 3.649357088498e+06 3.648840480141e+06 3.648057509283e+06 3.647003339166e+06 3.644074043639e+06 3.800158985779e+06 4.353807683190e+06 4.234465988116e+06 4.105239500857e+06 3.971997656759e+06 3.994807558154e+06 3.960830695622e+06 3.949997636122e+06 3.955637920595e+06 3.803290385117e+06 3.805724220640e+06 3.806833758785e+06 3.806336266131e+06 3.804187957458e+06 3.800065792107e+06 3.784269682364e+06 3.763190492470e+06 3.756528804853e+06 3.768844905088e+06 3.785923943582e+06 3.796475534765e+06 3.803950037854e+06 3.808384030524e+06 3.810473024089e+06 3.811364507282e+06 3.811804869209e+06 3.812049435508e+06 3.812158078072e+06 3.812168532182e+06 3.812128034497e+06 3.812073698471e+06 3.812011772549e+06 3.811935165433e+06 3.811893745326e+06 3.812003683976e+06 3.812177866444e+06 3.811754408717e+06 3.810381536369e+06 3.809628095012e+06 3.810240023807e+06 4.216352516128e+06 4.093080769449e+06 3.961598324696e+06 3.933061259893e+06 4.109670021734e+06 4.291008233591e+06 4.475850805103e+06 3.835512838963e+06 4.664305328739e+06 4.854711785039e+06 4.964726336267e+06 4.336008076204e+06 4.178651345948e+06 4.129009777870e+06 4.080328957302e+06 4.106467918075e+06 4.305117821195e+06 4.257369960901e+06 4.278225969454e+06 4.119155251277e+06 4.287440181035e+06 4.126080056513e+06 3.965810339921e+06 4.292517053449e+06 4.294957251859e+06 4.129791715548e+06 3.967954170709e+06 4.294458109928e+06 4.130714316277e+06 3.967782947894e+06 3.965090558859e+06 4.127962801719e+06 4.288083137960e+06 4.119746800027e+06 3.961392244039e+06 3.965830506993e+06 3.906862157396e+06 3.878084676946e+06 3.881710505784e+06 3.934090593936e+06 3.947679264895e+06 3.960820514921e+06 3.969351194258e+06 3.972878892582e+06 3.973963206138e+06 3.974520699989e+06 3.974954964824e+06 3.975199810478e+06 3.975247522872e+06 3.975171024565e+06 3.975047690030e+06 3.974900596632e+06 3.974687326510e+06 3.974399515552e+06 3.974300460731e+06 3.974880028763e+06 3.975748807059e+06 3.974000070385e+06 3.969655292287e+06 3.971859064385e+06 4.110373986268e+06 4.262204609707e+06 4.368089371353e+06 4.224724830035e+06 4.125302806352e+06 3.970948931038e+06 4.092443122004e+06 4.213771995949e+06 4.364754170588e+06 4.556971036467e+06 4.755306578318e+06 4.114487436887e+06 4.255533217992e+06 4.132112206701e+06 4.137952981479e+06 4.137744880402e+06 4.137730184151e+06 4.138383507462e+06 4.138902487126e+06 4.139051890815e+06 4.138940745241e+06 4.138717226223e+06 4.138454278499e+06 4.138092927017e+06 4.137461998522e+06 4.136543724440e+06 4.136397840714e+06 4.138976311105e+06 4.143006731604e+06 4.133586797052e+06 4.118378379877e+06 5.291341106929e+06 5.095920257509e+06 5.259545609510e+06 5.254565418202e+06 5.275078752202e+06 5.292175942042e+06 5.298857031752e+06 5.298830184005e+06 5.297247837036e+06 5.295771533051e+06 5.294758842130e+06 5.294280769182e+06 5.294272127631e+06 5.294649087798e+06 5.295368076058e+06 5.296449501678e+06 5.297844123569e+06 5.298788095869e+06 5.296218219421e+06 5.289936906562e+06 5.298925607561e+06 5.320561403632e+06 5.333443494948e+06 5.243295034658e+06 5.069854389510e+06 3.798487148938e+06 3.782708364554e+06 3.989951188237e+06 4.133179785066e+06 4.906156405028e+06 5.066506008708e+06 5.198299872101e+06 5.160045369932e+06 5.064280842713e+06 4.915227735578e+06 5.026636202521e+06 5.083115828099e+06 5.125877303696e+06 5.143231798122e+06 5.139952185679e+06 5.135632887363e+06 5.132891371605e+06 5.131054827487e+06 5.130134861300e+06 5.129898118874e+06 5.130179000470e+06 5.130919067410e+06 5.132204912972e+06 5.134327907858e+06 5.137674118632e+06 5.141138205851e+06 5.128946838948e+06 5.096310237311e+06 4.980266424683e+06 4.298160585243e+06 4.449717095809e+06 4.765165208588e+06 4.876961399938e+06 4.569371542456e+06 4.381141054830e+06 4.197219136611e+06 4.016054568224e+06 3.920531891844e+06 4.100637335035e+06 4.194999136885e+06 4.285611763443e+06 4.469132692840e+06 4.371487195728e+06 4.290012525345e+06 4.234373020252e+06 4.267981292209e+06 4.662277918728e+06 4.546189012372e+06 4.444017355279e+06 4.362868093825e+06 4.328930619000e+06 4.307237708983e+06 4.296940125185e+06 4.297030944933e+06 4.300042185510e+06 4.301670168711e+06 4.302444871815e+06 4.302912594805e+06 4.303318977313e+06 4.303673709196e+06 4.303819389891e+06 4.303450452384e+06 4.302222836937e+06 4.301066254425e+06 4.304311479299e+06 4.312398642869e+06 4.747549315972e+06 4.583562905170e+06 4.510990623143e+06 4.867764168495e+06 4.669651491289e+06 4.946823469868e+06 5.012624758101e+06 4.987896002627e+06 4.430535677219e+06 4.576017590614e+06 4.732189788771e+06 4.858074044750e+06 4.536876781694e+06 4.483879647150e+06 4.669742899531e+06 4.451873436909e+06 4.608469077615e+06 4.450217886035e+06 4.564306364177e+06 4.462261724815e+06 4.465862237818e+06 4.467155744079e+06 4.467783914569e+06 4.468303195697e+06 4.468873561115e+06 4.469448275232e+06 4.469777195021e+06 4.469080163382e+06 4.465252023583e+06 4.460792302886e+06 4.477303243874e+06 4.525282452093e+06 4.697780841906e+06 4.775709399914e+06 4.666136843584e+06 4.595877195190e+06 4.622324242477e+06 4.637419248917e+06 4.637591855321e+06 4.636327874862e+06 4.635195908457e+06 4.634336628890e+06 4.633726814448e+06 4.633279788911e+06 4.632788591976e+06 4.631748644344e+06 4.628736472219e+06 4.798538857453e+06 4.681900477015e+06 4.973645590188e+06 4.809070921433e+06 4.969929177507e+06 4.801014053792e+06 4.966679167747e+06 4.799487657583e+06 4.799204730899e+06 4.799332475983e+06 4.965277105345e+06 4.964843133909e+06 4.799794737897e+06 4.964980620307e+06 4.965577461879e+06 4.966711565351e+06 4.800598975693e+06 4.801996635703e+06 4.968713157343e+06 4.972525780580e+06 4.804354146926e+06 4.809094149389e+06 4.980998080727e+06 5.003725940047e+06 4.821810118753e+06 4.753577652661e+06 4.945688828364e+06 4.869625929208e+06 5.154223674720e+06 5.350371030596e+06 5.546518386558e+06 5.742665742593e+06 5.938813098704e+06 6.134960454879e+06 6.331107811116e+06 6.527255167405e+06 6.723402523740e+06 6.919549880115e+06 6.919550906527e+06 6.919551932906e+06 6.919552959255e+06 6.919553985575e+06 6.919555011867e+06 6.919556038134e+06 6.919557064377e+06 6.919558090603e+06 6.919559116815e+06 6.919560143019e+06 6.919561169221e+06 6.919562195428e+06 6.919563221650e+06 6.919564247890e+06 6.919565274161e+06 6.741248599203e+06 6.562931924193e+06 6.384615249123e+06 6.206298573978e+06 6.027981898742e+06 5.849665223395e+06 5.671348547909e+06 5.493031872248e+06 5.314715196367e+06 5.136398520207e+06 5.082048587760e+06 6.793352284601e+06 6.774678928460e+06 5.106201191741e+06 6.764980324027e+06 6.621562515003e+06 6.639500395870e+06 5.233610239441e+06 6.779386043310e+06 6.667071103034e+06 6.454385634560e+06 6.529653558905e+06 6.275393178622e+06 6.092636293576e+06 5.912430718797e+06 5.738473349098e+06 5.568547678771e+06 5.391119425187e+06 5.172536245716e+06 6.765220082738e+06 6.630470022901e+06 6.752685711061e+06 6.749288994680e+06 6.751455516903e+06 6.754176629306e+06 6.756804605868e+06 6.758894960313e+06 6.758032766583e+06 6.749766076127e+06 6.735180737097e+06 6.738977112135e+06 5.122477238652e+06 5.127192249650e+06 5.125232770958e+06 5.122328160430e+06 5.120405437997e+06 5.119696655774e+06 5.119651354533e+06 5.119176379054e+06 5.117409619863e+06 5.115102719633e+06 5.114609101196e+06 5.119104304164e+06 5.134039402637e+06 5.315737095806e+06 5.483068366818e+06 5.281158297193e+06 5.433592068946e+06 5.268828593685e+06 5.416188772424e+06 5.635621218038e+06 5.555487134723e+06 5.551239106714e+06 5.268059717643e+06 5.413610329183e+06 5.549326256103e+06 5.273473990696e+06 5.279329631933e+06 5.281169443810e+06 5.280413268572e+06 5.280487769073e+06 5.283079203935e+06 5.288816298592e+06 5.296913615928e+06 5.421791865139e+06 5.557276752692e+06 5.794893390663e+06 5.675296575709e+06 5.679061839810e+06 5.679420310056e+06 5.972697584441e+06 6.162653081603e+06 6.353076649931e+06 6.452102912598e+06 5.437745657414e+06 5.445333499619e+06 5.441351064115e+06 5.438524013525e+06 5.439636529866e+06 5.446176703539e+06 5.459026633907e+06 5.302495878864e+06 5.478887176608e+06 5.282906607517e+06 5.579736989182e+06 5.699899222549e+06 6.579472127707e+06 6.449034267395e+06 6.248019647493e+06 6.046374071006e+06 5.844261122224e+06 5.635607736422e+06 5.425955598702e+06 5.625475042164e+06 5.605181455839e+06 5.595537878818e+06 5.591977025987e+06 5.596365250582e+06 5.609601468327e+06 5.633848776335e+06 6.515711583328e+06 6.568181475723e+06 6.598537029043e+06 6.602053299121e+06 6.597160519984e+06 6.590831401442e+06 6.585831964034e+06 6.579197070243e+06 6.572416043056e+06 6.589679084547e+06 6.369583172568e+06 6.158218900255e+06 5.955101137547e+06 5.747865221796e+06 5.506866876879e+06 5.674660750467e+06 5.871555389561e+06 6.063587738632e+06 6.268053530551e+06 6.351835394220e+06 6.458702531063e+06 6.454742094714e+06 6.444686745493e+06 6.428831381725e+06 6.420885125708e+06 6.417101141256e+06 6.398168754416e+06 6.365282467290e+06 5.836957206165e+06 5.783762747260e+06 5.808240775269e+06 6.038550342024e+06 5.916251618374e+06 6.245038601068e+06 6.099115541977e+06 5.931787693456e+06 5.839398071299e+06 5.735750610233e+06 6.201081137769e+06 5.996390895277e+06 5.864448145404e+06 6.253643276961e+06 5.805304260305e+06 5.767905042262e+06 6.263883209163e+06 5.753676471120e+06 6.237525282506e+06 5.740586572276e+06 5.739584700971e+06 5.750226366064e+06 5.771753289825e+06 5.809639040191e+06 5.979616457860e+06 6.150235810595e+06 5.926965987592e+06 6.056566945088e+06 6.182381696357e+06 6.320497298654e+06 5.900447864127e+06 5.883031491713e+06 5.874035026568e+06 6.044018165248e+06 6.026218134970e+06 6.006553914541e+06 6.171418213686e+06 6.151221086186e+06 6.303929650631e+06 6.280738007008e+06 6.117716565512e+06 5.985947792672e+06 6.043267557811e+06 6.105858758243e+06 6.147141062701e+06 6.093653752446e+06 5.945124514891e+06 5.892275992458e+06 6.018123769788e+06 5.924125269926e+06 5.887009046901e+06 7.117612964471e+06 7.315660654738e+06 7.513708344968e+06 7.711756035167e+06 7.909803725341e+06 8.102451960326e+06 8.295100195294e+06 8.487748430248e+06 8.680396665