 TITLE = "Time curves in points"
 VARIABLES = "TIME " "PRESSURE1" "VELOCITY_X1" "VELOCITY_Y1" "VELOCITY_Z1" "DISPLACEMENT_X1" "DISPLACEMENT_Y1" "STRESS_XX" "STRESS_YY" "STRESS_ZZ"  p_(1st_Invariant)  q_(2nd_Invariant)   Effective_Strain
 ZONE T="POINT=POINT5"
0.000000000000e+00 5.943829323211e+06 0.000000000000e+00 0.000000000000e+00 0.000000000000e+00 0.000000000000e+00 0.000000000000e+00 -1.186806795280e+06 -8.703581695712e+06 -1.186846618919e+06 3.692411703304e+06 7.516754992608e+06  0.000000000000e+00
8.640000000000e+03 5.943886915118e+06 2.792274129130e-18 7.834385178285e-18 0.000000000000e+00 4.644841644904e-07 -8.526476471821e-02 -1.781383425850e+06 -1.306347841874e+07 -1.781383421351e+06 5.542081755315e+06 1.128209499514e+07  1.422800554155e-04
