<?xml version="1.0"?>
<!-- Time step: 0 | Time: 0.000000000000e+00 -->
<VTKFile type="UnstructuredGrid" version="0.1" byte_order="LittleEndian">
  <UnstructuredGrid>
    <Piece NumberOfPoints="4239" NumberOfCells="8285">
      <Points>
        <DataArray type="Float64" NumberOfComponents="3" format="ascii">
          0.000000000000e+00 0.000000000000e+00 -3.000000000000e+02
          0.000000000000e+00 0.000000000000e+00 -3.200000033858e+02
          0.000000000000e+00 0.000000000000e+00 -3.400000067716e+02
          0.000000000000e+00 0.000000000000e+00 -3.600000101574e+02
          0.000000000000e+00 0.000000000000e+00 -3.800000135432e+02
          0.000000000000e+00 0.000000000000e+00 -4.000000169290e+02
          0.000000000000e+00 0.000000000000e+00 -4.200000203148e+02
          0.000000000000e+00 0.000000000000e+00 -4.400000237006e+02
          0.000000000000e+00 0.000000000000e+00 -4.600000270864e+02
          0.000000000000e+00 0.000000000000e+00 -4.800000304722e+02
          0.000000000000e+00 0.000000000000e+00 -5.000000338580e+02
          1.912732711206e+01 0.000000000000e+00 -5.000000671490e+02
          3.825465422413e+01 0.000000000000e+00 -5.000001004400e+02
          5.738198133619e+01 0.000000000000e+00 -5.000001337310e+02
          7.650930844825e+01 0.000000000000e+00 -5.000001670220e+02
          9.563663556031e+01 0.000000000000e+00 -5.000002003130e+02
          1.147639626724e+02 0.000000000000e+00 -5.000002336040e+02
          1.338912897844e+02 0.000000000000e+00 -5.000002668950e+02
          1.530186168965e+02 0.000000000000e+00 -5.000003001860e+02
          1.721459440086e+02 0.000000000000e+00 -5.000003334770e+02
          1.912732711206e+02 0.000000000000e+00 -5.000003667679e+02
          2.104005982327e+02 0.000000000000e+00 -5.000004000589e+02
          2.295279253448e+02 0.000000000000e+00 -5.000004333499e+02
          2.486552524568e+02 0.000000000000e+00 -5.000004666409e+02
          2.677825795689e+02 0.000000000000e+00 -5.000004999319e+02
          2.869099066809e+02 0.000000000000e+00 -5.000005332229e+02
          3.060372337930e+02 0.000000000000e+00 -5.000005665139e+02
          3.251645609051e+02 0.000000000000e+00 -5.000005998049e+02
          3.286911500212e+02 0.000000000000e+00 -4.800002834446e+02
          3.322177391373e+02 0.000000000000e+00 -4.599999670842e+02
          3.357443282534e+02 0.000000000000e+00 -4.399996507239e+02
          3.392709173695e+02 0.000000000000e+00 -4.199993343636e+02
          3.427975064856e+02 0.000000000000e+00 -3.999990180032e+02
          3.633680000000e+02 0.000000000000e+00 -4.000000000000e+02
          3.601600320156e+02 0.000000000000e+00 -4.182447086488e+02
          3.569520640312e+02 0.000000000000e+00 -4.364894172977e+02
          3.537440960467e+02 0.000000000000e+00 -4.547341259465e+02
          3.505361280623e+02 0.000000000000e+00 -4.729788345954e+02
          3.473281600779e+02 0.000000000000e+00 -4.912235432442e+02
          3.441201920935e+02 0.000000000000e+00 -5.094682518931e+02
          3.409122241091e+02 0.000000000000e+00 -5.277129605419e+02
          3.377042561247e+02 0.000000000000e+00 -5.459576691908e+02
          3.344962881402e+02 0.000000000000e+00 -5.642023778396e+02
          3.312883201558e+02 0.000000000000e+00 -5.824470864885e+02
          3.280803521714e+02 0.000000000000e+00 -6.006917951373e+02
          3.471443404324e+02 0.000000000000e+00 -6.006974714707e+02
          3.662083286933e+02 0.000000000000e+00 -6.007031478041e+02
          3.852723169543e+02 0.000000000000e+00 -6.007088241375e+02
          4.043363052152e+02 0.000000000000e+00 -6.007145004709e+02
          4.234002934762e+02 0.000000000000e+00 -6.007201768043e+02
          4.424642817371e+02 0.000000000000e+00 -6.007258531377e+02
          4.615282699981e+02 0.000000000000e+00 -6.007315294711e+02
          4.805922582590e+02 0.000000000000e+00 -6.007372058045e+02
          4.996562465200e+02 0.000000000000e+00 -6.007428821379e+02
          5.187202347809e+02 0.000000000000e+00 -6.007485584713e+02
          5.377842230419e+02 0.000000000000e+00 -6.007542348047e+02
          5.568482113029e+02 0.000000000000e+00 -6.007599111382e+02
          5.759121995638e+02 0.000000000000e+00 -6.007655874716e+02
          5.949761878248e+02 0.000000000000e+00 -6.007712638050e+02
          6.140401760857e+02 0.000000000000e+00 -6.007769401384e+02
          6.331041643467e+02 0.000000000000e+00 -6.007826164718e+02
          6.521681526076e+02 0.000000000000e+00 -6.007882928052e+02
          6.712321408686e+02 0.000000000000e+00 -6.007939691386e+02
          6.902961291295e+02 0.000000000000e+00 -6.007996454720e+02
          7.093601173905e+02 0.000000000000e+00 -6.008053218054e+02
          7.284241056514e+02 0.000000000000e+00 -6.008109981388e+02
          7.474880939124e+02 0.000000000000e+00 -6.008166744722e+02
          7.665520821733e+02 0.000000000000e+00 -6.008223508056e+02
          7.856160704343e+02 0.000000000000e+00 -6.008280271390e+02
          8.046800586952e+02 0.000000000000e+00 -6.008337034724e+02
          8.237440469562e+02 0.000000000000e+00 -6.008393798058e+02
          8.428080352171e+02 0.000000000000e+00 -6.008450561392e+02
          8.618720234781e+02 0.000000000000e+00 -6.008507324726e+02
          8.809360117390e+02 0.000000000000e+00 -6.008564088060e+02
          9.000000000000e+02 0.000000000000e+00 -6.008620851394e+02
          9.000000000000e+02 0.000000000000e+00 -5.820582048182e+02
          9.000000000000e+02 0.000000000000e+00 -5.632543244970e+02
          9.000000000000e+02 0.000000000000e+00 -5.444504441758e+02
          9.000000000000e+02 0.000000000000e+00 -5.256465638546e+02
          9.000000000000e+02 0.000000000000e+00 -5.068426835333e+02
          9.000000000000e+02 0.000000000000e+00 -4.880388032121e+02
          9.000000000000e+02 0.000000000000e+00 -4.692349228909e+02
          9.000000000000e+02 0.000000000000e+00 -4.504310425697e+02
          9.000000000000e+02 0.000000000000e+00 -4.316271622485e+02
          9.000000000000e+02 0.000000000000e+00 -4.128232819273e+02
          9.000000000000e+02 0.000000000000e+00 -3.940194016061e+02
          9.000000000000e+02 0.000000000000e+00 -3.752155212849e+02
          9.000000000000e+02 0.000000000000e+00 -3.564116409636e+02
          9.000000000000e+02 0.000000000000e+00 -3.376077606424e+02
          9.000000000000e+02 0.000000000000e+00 -3.188038803212e+02
          9.000000000000e+02 0.000000000000e+00 -3.000000000000e+02
          8.808510638298e+02 0.000000000000e+00 -3.000000000000e+02
          8.617021276596e+02 0.000000000000e+00 -3.000000000000e+02
          8.425531914894e+02 0.000000000000e+00 -3.000000000000e+02
          8.234042553191e+02 0.000000000000e+00 -3.000000000000e+02
          8.042553191489e+02 0.000000000000e+00 -3.000000000000e+02
          7.851063829787e+02 0.000000000000e+00 -3.000000000000e+02
          7.659574468085e+02 0.000000000000e+00 -3.000000000000e+02
          7.468085106383e+02 0.000000000000e+00 -3.000000000000e+02
          7.276595744681e+02 0.000000000000e+00 -3.000000000000e+02
          7.085106382979e+02 0.000000000000e+00 -3.000000000000e+02
          6.893617021277e+02 0.000000000000e+00 -3.000000000000e+02
          6.702127659574e+02 0.000000000000e+00 -3.000000000000e+02
          6.510638297872e+02 0.000000000000e+00 -3.000000000000e+02
          6.319148936170e+02 0.000000000000e+00 -3.000000000000e+02
          6.127659574468e+02 0.000000000000e+00 -3.000000000000e+02
          5.936170212766e+02 0.000000000000e+00 -3.000000000000e+02
          5.744680851064e+02 0.000000000000e+00 -3.000000000000e+02
          5.553191489362e+02 0.000000000000e+00 -3.000000000000e+02
          5.361702127660e+02 0.000000000000e+00 -3.000000000000e+02
          5.170212765957e+02 0.000000000000e+00 -3.000000000000e+02
          4.978723404255e+02 0.000000000000e+00 -3.000000000000e+02
          4.787234042553e+02 0.000000000000e+00 -3.000000000000e+02
          4.595744680851e+02 0.000000000000e+00 -3.000000000000e+02
          4.404255319149e+02 0.000000000000e+00 -3.000000000000e+02
          4.212765957447e+02 0.000000000000e+00 -3.000000000000e+02
          4.021276595745e+02 0.000000000000e+00 -3.000000000000e+02
          3.829787234043e+02 0.000000000000e+00 -3.000000000000e+02
          3.638297872340e+02 0.000000000000e+00 -3.000000000000e+02
          3.446808510638e+02 0.000000000000e+00 -3.000000000000e+02
          3.255319148936e+02 0.000000000000e+00 -3.000000000000e+02
          3.063829787234e+02 0.000000000000e+00 -3.000000000000e+02
          2.872340425532e+02 0.000000000000e+00 -3.000000000000e+02
          2.680851063830e+02 0.000000000000e+00 -3.000000000000e+02
          2.489361702128e+02 0.000000000000e+00 -3.000000000000e+02
          2.297872340426e+02 0.000000000000e+00 -3.000000000000e+02
          2.106382978723e+02 0.000000000000e+00 -3.000000000000e+02
          1.914893617021e+02 0.000000000000e+00 -3.000000000000e+02
          1.723404255319e+02 0.000000000000e+00 -3.000000000000e+02
          1.531914893617e+02 0.000000000000e+00 -3.000000000000e+02
          1.340425531915e+02 0.000000000000e+00 -3.000000000000e+02
          1.148936170213e+02 0.000000000000e+00 -3.000000000000e+02
          9.574468085106e+01 0.000000000000e+00 -3.000000000000e+02
          7.659574468085e+01 0.000000000000e+00 -3.000000000000e+02
          5.744680851064e+01 0.000000000000e+00 -3.000000000000e+02
          3.829787234043e+01 0.000000000000e+00 -3.000000000000e+02
          1.914893617021e+01 0.000000000000e+00 -3.000000000000e+02
          8.875310861917e+02 0.000000000000e+00 -5.885021893492e+02
          1.244858699708e+01 0.000000000000e+00 -3.126391296399e+02
          8.873857506203e+02 0.000000000000e+00 -3.123845169440e+02
          1.262677308526e+01 0.000000000000e+00 -4.869517013229e+02
          3.123565098502e+02 0.000000000000e+00 -4.842228482756e+02
[...]
      <PointData Scalars="PRESSURE1">
        <DataArray type="Float64" Name="PRESSURE1" format="ascii">
          3.000000000000e+06 3.195796078594e+06 3.391592060015e+06 3.587387859559e+06 3.783183388836e+06 3.978978555371e+06 4.174773267536e+06 4.370567447571e+06 4.566361047524e+06 4.762154047056e+06 4.957946382766e+06 4.957946977164e+06 4.957948188396e+06 4.957950021334e+06 4.957952579900e+06 4.957956012352e+06 4.957960509138e+06 4.957966315042e+06 4.957973735607e+06 4.957983131759e+06 4.957994883255e+06 4.958009282550e+06 4.958026289395e+06 4.958045059307e+06 4.958063329500e+06 4.958077289561e+06 4.958084553932e+06 4.958081720935e+06 4.762259493278e+06 4.566442830269e+06 4.370629688011e+06 4.174818871462e+06 3.979009665647e+06 3.979017716060e+06 4.157638404272e+06 4.336260167770e+06 4.514883358234e+06 4.693508500305e+06 4.872136352040e+06 5.050767952629e+06 5.229404506797e+06 5.408046739170e+06 5.586689923725e+06 5.765306433188e+06 5.943829323211e+06 5.943851602592e+06 5.943884425841e+06 5.943924181769e+06 5.943969695881e+06 5.944018798372e+06 5.944070244743e+06 5.944123268504e+06 5.944177379448e+06 5.944232249168e+06 5.944287651478e+06 5.944343429211e+06 5.944399470714e+06 5.944455694694e+06 5.944512040943e+06 5.944568463683e+06 5.944624927396e+06 5.944681404431e+06 5.944737873197e+06 5.944794316323e+06 5.944850719170e+06 5.944907069497e+06 5.944963357664e+06 5.945019576396e+06 5.945075720198e+06 5.945131784500e+06 5.945187765118e+06 5.945243658306e+06 5.945299461602e+06 5.945355174898e+06 5.945410790018e+06 5.761322352705e+06 5.577233996506e+06 5.393145702281e+06 5.209057460371e+06 5.024969261224e+06 4.840881094935e+06 4.656792952948e+06 4.472704828227e+06 4.288616715092e+06 4.104528609096e+06 3.920440506910e+06 3.736352406217e+06 3.552264305584e+06 3.368176204348e+06 3.184088102410e+06 3.000000000000e+06 3.000000000000e+06 3.000000000000e+06 3.000000000000e+06 3.000000000000e+06 3.000000000000e+06 3.000000000000e+06 3.000000000000e+06 3.000000000000e+06 3.000000000000e+06 3.000000000000e+06 3.000000000000e+06 3.000000000000e+06 3.000000000000e+06 3.000000000000e+06 3.000000000000e+06 3.000000000000e+06 3.000000000000e+06 3.000000000000e+06 3.000000000000e+06 3.000000000000e+06 3.000000000000e+06 3.000000000000e+06 3.000000000000e+06 3.000000000000e+06 3.000000000000e+06 3.000000000000e+06 3.000000000000e+06 3.000000000000e+06 3.000000000000e+06 3.000000000000e+06 3.000000000000e+06 3.000000000000e+06 3.000000000000e+06 3.000000000000e+06 3.000000000000e+06 3.000000000000e+06 3.000000000000e+06 3.000000000000e+06 3.000000000000e+06 3.000000000000e+06 3.000000000000e+06 3.000000000000e+06 3.000000000000e+06 3.000000000000e+06 3.000000000000e+06 3.000000000000e+06 5.824408403398e+06 3.123734595889e+06 3.121243178878e+06 4.830208417552e+06 4.803604078431e+06 4.800724889793e+06 3.148007823675e+06 3.271727156194e+06 5.674659938865e+06 5.795264584839e+06 3.150898700404e+06 4.812381022377e+06 3.275237188318e+06 4.672177493914e+06 4.638187462772e+06 4.691903806584e+06 4.803267835264e+06 4.658421979082e+06 4.796448190111e+06 4.793705120797e+06 4.792289105478e+06 4.791103440528e+06 4.790125163366e+06 4.790150017674e+06 4.792061118101e+06 4.795328483523e+06 4.797955400894e+06 4.797897343283e+06 4.794063673278e+06 4.788660393760e+06 4.457847010810e+06 4.546011531670e+06 4.256153532535e+06 4.068604256404e+06 4.597342138843e+06 3.164650928987e+06 3.169883614221e+06 3.168368697404e+06 3.165594474541e+06 3.163352925330e+06 3.161975388921e+06 3.161366363095e+06 3.161294231753e+06 3.161489991080e+06 3.161738767870e+06 3.161923847257e+06 3.161994318199e+06 3.161901309229e+06 3.161586287217e+06 3.161072290483e+06 3.160554765760e+06 3.160309548554e+06 3.160463723526e+06 3.160901369754e+06 3.161401042467e+06 3.161808068468e+06 3.162077484830e+06 3.162229056243e+06 3.162302257133e+06 3.162332915030e+06 3.162344520933e+06 3.162348816842e+06 3.162350357720e+06 3.162350727340e+06 3.162350730286e+06 3.162350812407e+06 3.162350729825e+06 3.162349408571e+06 3.162344284648e+06 3.162326832273e+06 3.162271017094e+06 3.162116719258e+06 3.161765603868e+06 3.161135946864e+06 3.160326629332e+06 3.160128615451e+06 3.162012172067e+06 3.164807563851e+06 3.458560644755e+06 3.648599874524e+06 3.833021404711e+06 4.015596831163e+06 4.198267908221e+06 4.381564133814e+06 4.565463751028e+06 4.749633500589e+06 4.933505533921e+06 5.116783282114e+06 5.300762732091e+06 5.489327254307e+06 5.781417759000e+06 5.783021564608e+06 5.783093597227e+06 5.781323359621e+06 5.779897167794e+06 5.779961382622e+06 5.781119117385e+06 5.782340112933e+06 5.783017449542e+06 5.783161758849e+06 5.783032488555e+06 5.782841192404e+06 5.782688597486e+06 5.782606186477e+06 5.782592737523e+06 5.782629785858e+06 5.782690151897e+06 5.782743040613e+06 5.782757828078e+06 5.782743314118e+06 5.782815714715e+06 5.782976281106e+06 5.782355538667e+06 5.778729622398e+06 5.769977664056e+06 5.757278177605e+06 5.756777648311e+06 5.543452960345e+06 5.319775889452e+06 5.141755334947e+06 4.978691192262e+06 4.810058403992e+06 4.629260323649e+06 4.444939949177e+06 4.267681078532e+06 4.088286380024e+06 5.584970536326e+06 5.389442219804e+06 5.205221866903e+06 5.065518680829e+06 5.609932034896e+06 5.620866030215e+06 5.622252450971e+06 4.931090362512e+06 5.621280914273e+06 5.620993118284e+06 5.621171048434e+06 5.621168293280e+06 5.620963459995e+06 5.620706106130e+06 5.620490727926e+06 5.620376567110e+06 5.620411258028e+06 5.620622812987e+06 5.620993707557e+06 5.621401860964e+06 5.621499701952e+06 5.620614789585e+06 5.618085672671e+06 5.614347409984e+06 5.611886887573e+06 5.613620109299e+06 5.619123116687e+06 5.623505509911e+06 5.619084583940e+06 5.600424837685e+06 3.467608570520e+06 3.676774603584e+06 3.883293544093e+06 4.080813250030e+06 4.276227523987e+06 4.476138362088e+06 3.325118332223e+06 3.345855332722e+06 3.341621361338e+06 3.334429256125e+06 3.328636398578e+06 3.324786322318e+06 3.322698359563e+06 3.322036589814e+06 3.322274669408e+06 3.322851802772e+06 3.323380374639e+06 3.323664139349e+06 3.323571028561e+06 3.322912818295e+06 3.321563764309e+06 3.319851013198e+06 3.318626900470e+06 3.318605763563e+06 3.319705686008e+06 3.321246089031e+06 3.322618772805e+06 3.323588996239e+06 3.324172568436e+06 3.324475443115e+06 3.324612742094e+06 3.324669293072e+06 3.324691856094e+06 3.324700481645e+06 3.324702714650e+06 3.324702307270e+06 3.324701938729e+06 3.324702642408e+06 3.324703082936e+06 3.324698693549e+06 3.324675676723e+06 3.324598223412e+06 3.324394360261e+06 3.323934133562e+06 3.323014104076e+06 3.321487279108e+06 3.319428967890e+06 3.319797591105e+06 3.328545561476e+06 4.635185021927e+06 4.460323610743e+06 4.624062912681e+06 4.638448340177e+06 4.642075470421e+06 4.637842896220e+06 4.629463335723e+06 4.622429500281e+06 4.620759838912e+06 4.622656163009e+06 4.625024720482e+06 4.627092770838e+06 4.629421856295e+06 4.461740065585e+06 3.348423669053e+06 3.563470015738e+06 3.502223548585e+06 3.475664441022e+06 3.749077582208e+06 3.928849853574e+06 4.109052782800e+06 3.675568960843e+06 3.623342705790e+06 4.290930578796e+06 3.846178382536e+06 4.021052901724e+06 4.200556864156e+06 3.770497895141e+06 4.474382900893e+06 4.383121021507e+06 4.658928268532e+06 4.843460379917e+06 5.026319499064e+06 5.206781961020e+06 5.389863871359e+06 5.453481637467e+06 5.288668237918e+06 5.472484970028e+06 5.350409552805e+06 5.119013670658e+06 5.213021588629e+06 4.568104281499e+06 4.754476846958e+06 4.939587553176e+06 5.040833192437e+06 3.474311348159e+06 3.606992822078e+06 3.710293876775e+06 3.481111632877e+06 3.483793515091e+06 3.485455359958e+06 3.486304354285e+06 3.486764308763e+06 3.486984075423e+06 3.487053545764e+06 3.487063083756e+06 3.487061345230e+06 3.487060600713e+06 3.487062863882e+06 3.487067517500e+06 3.487069520087e+06 3.487060302498e+06 3.487028455787e+06 3.486951459954e+06 3.486771060031e+06 3.486355072966e+06 3.485476994050e+06 3.483862981857e+06 3.481306596263e+06 3.477836694011e+06 3.474260703173e+06 3.472463362216e+06 3.473932179563e+06 3.477837760851e+06 3.481720677344e+06 3.484032420428e+06 3.484886211156e+06 3.484817232311e+06 3.484118952086e+06 3.483050113375e+06 3.482105124607e+06 3.482167942314e+06 3.484273077743e+06 3.488940644334e+06 3.496385618745e+06 3.507770061006e+06 5.463393113166e+06 5.324364579911e+06 5.448022580525e+06 5.438693068825e+06 5.441351831148e+06 5.450161405919e+06 5.456960907725e+06 5.459671279492e+06 5.459787979504e+06 5.459052790810e+06 5.458291123647e+06 5.457788815399e+06 5.457609362090e+06 5.457721597137e+06 5.458064929653e+06 5.458584445668e+06 5.459203262144e+06 5.459649428244e+06 5.459253204079e+06 5.458052781846e+06 5.459515856356e+06 5.464900674711e+06 5.465015024582e+06 5.437969788614e+06 5.155060015156e+06 3.643325999285e+06 3.715689113988e+06 3.524985410208e+06 3.549978486399e+06 3.789147575411e+06 3.720544810505e+06 3.685045218150e+06 3.990342352365e+06 4.180587966233e+06 4.373973430106e+06 4.445600199896e+06 4.480976225053e+06 4.267752802366e+06 4.329788134741e+06 4.093868517938e+06 3.913783199914e+06 4.182619860780e+06 4.028081320762e+06 3.860986632981e+06 3.665826458712e+06 3.831794245516e+06 3.654928150370e+06 3.821489304799e+06 3.646935952487e+06 3.641965022576e+06 3.812806609739e+06 3.801265060740e+06 4.493074806762e+06 4.356111640098e+06 4.246461733035e+06 4.130452653233e+06 3.987790817016e+06 4.489192576542e+06 4.475102465153e+06 4.455773762786e+06 4.447514925704e+06 4.452089708126e+06 4.456590874300e+06 4.459710692504e+06 4.461372709318e+06 3.640963242709e+06 3.797990897353e+06 3.642270109417e+06 3.644093835796e+06 3.645470817463e+06 3.645960887180e+06 3.645274376268e+06 3.642827323436e+06 3.636729925947e+06 3.627277884762e+06 3.620386124378e+06 3.621332310362e+06 3.628371097126e+06 3.636012537042e+06 3.641666518797e+06 3.645435847359e+06 3.647592735200e+06 3.648649643492e+06 3.649129059296e+06 3.649353807267e+06 3.649460702411e+06 3.649500017386e+06 3.649499520126e+06 3.649483014627e+06 3.649465983529e+06 3.649451231181e+06 3.649442437310e+06 3.649457176429e+06 3.649473799840e+06 3.649325572226e+06 3.648808872798e+06 3.648025857677e+06 3.646971682663e+06 3.644042493896e+06 3.800126500644e+06 4.353729761278e+06 4.234394709783e+06 4.105177058068e+06 3.971944111027e+06 3.994755119740e+06 3.960783142948e+06 3.949953614522e+06 3.955597029246e+06 3.803260929596e+06 3.805697892363e+06 3.806810479114e+06 3.806315745231e+06 3.804169699348e+06 3.800049129794e+06 3.784253965372e+06 3.763175030119e+06 3.756512755984e+06 3.768827468052e+06 3.785904528979e+06 3.796453903875e+06 3.803926081319e+06 3.808357798854e+06 3.810444677859e+06 3.811334247915e+06 3.811772907187e+06 3.812015983977e+06 3.812123347251e+06 3.812132721427e+06 3.812091325877e+06 3.812036253825e+06 3.811973733683e+06 3.811896654991e+06 3.811854865042e+06 3.811964512744e+06 3.812138471924e+06 3.811714877683e+06 3.810341961424e+06 3.809588481166e+06 3.810200330332e+06 4.216284353380e+06 4.093020790248e+06 3.961561028616e+06 3.933015480968e+06 4.109615567261e+06 4.290944868800e+06 4.475778357640e+06 3.835471854412e+06 4.664223625085e+06 4.854620741003e+06 4.964629814103e+06 4.335934026644e+06 4.178587916988e+06 4.128952202018e+06 4.080276902481e+06 4.106417852764e+06 4.305049170337e+06 4.257308790119e+06 4.278169560685e+06 4.119109116511e+06 4.287389457885e+06 4.126038675399e+06 3.965776984414e+06 4.292472656417e+06 4.294919474577e+06 4.129755467064e+06 3.967924848765e+06 4.294426763509e+06 4.130683190419e+06 3.967757454016e+06 3.965068366560e+06 4.127936345400e+06 4.288057362961e+06 4.119724058675e+06 3.961372544726e+06 3.965812224869e+06 3.906844775389e+06 3.878066994670e+06 3.881691629630e+06 3.934069163498e+06 3.947655061508e+06 3.960793306997e+06 3.969320971641e+06 3.972845886728e+06 3.973927714846e+06 3.974483002440e+06 3.974915334619e+06 3.975158521479e+06 3.975204837460e+06 3.975127182160e+06 3.975002902081e+06 3.974855047493e+06 3.974641177131e+06 3.974352903451e+06 3.974253488338e+06 3.974832753822e+06 3.975701288529e+06 3.973952496568e+06 3.969607838166e+06 3.971811441080e+06 4.110353590783e+06 4.262182648941e+06 4.368069457763e+06 4.224704593206e+06 4.125283256774e+06 3.970928006251e+06 4.092417093942e+06 4.213744925335e+06 4.364724366874e+06 4.556938378174e+06 4.755272765707e+06 4.114457790286e+06 4.255502404409e+06 4.132078569539e+06 4.137915674774e+06 4.137704431176e+06 4.137686963548e+06 4.138337841219e+06 4.138854720714e+06 4.139002365466e+06 4.138889771832e+06 4.138665076273e+06 4.138401185657e+06 4.138039094658e+06 4.137407608160e+06 4.136488931203e+06 4.136342721419e+06 4.138920820928e+06 4.142950868783e+06 4.133531287748e+06 4.118323555998e+06 5.291228470714e+06 5.095817167581e+06 5.259434306683e+06 5.254454099241e+06 5.274966133093e+06 5.292062195761e+06 5.298742697295e+06 5.298715633202e+06 5.297133202664e+06 5.295656893450e+06 5.294644293706e+06 5.294166448093e+06 5.294158227054e+06 5.294535872522e+06 5.295255897829e+06 5.296338816990e+06 5.297735521930e+06 5.298682373708e+06 5.296116645782e+06 5.289841337351e+06 5.298836922818e+06 5.320480338948e+06 5.333371278401e+06 5.243240127626e+06 5.069813422595e+06 3.798448003986e+06 3.782669981062e+06 3.989902636144e+06 4.133124193891e+06 4.906113457629e+06 5.066452401346e+06 5.198233244380e+06 5.159971420949e+06 5.064218258855e+06 4.915174098964e+06 5.026536339302e+06 5.083012940043e+06 5.125772087897e+06 5.143125544483e+06 5.139845973335e+06 5.135526821454e+06 5.132785455327e+06 5.130949134617e+06 5.130029504719e+06 5.129793272441e+06 5.130074906971e+06 5.130816047659e+06 5.132103375758e+06 5.134228357793e+06 5.137577156908e+06 5.141044556352e+06 5.128858539244e+06 5.096231168027e+06 4.980201451061e+06 4.298124436688e+06 4.449680833253e+06 4.765078492521e+06 4.876869088732e+06 4.569294462974e+06 4.381073240794e+06 4.197160372231e+06 4.016004712401e+06 3.920486737067e+06 4.100583321207e+06 4.194940479866e+06 4.285548639808e+06 4.469060520518e+06 4.371419827355e+06 4.289949184379e+06 4.234312445405e+06 4.267919083749e+06 4.662196211228e+06 4.546113004804e+06 4.443946391591e+06 4.362801156239e+06 4.328865454526e+06 4.307173763098e+06 4.296876889145e+06 4.296967981572e+06 4.299979462179e+06 4.301607898523e+06 4.302383269789e+06 4.302851882219e+06 4.303259402273e+06 4.303615563048e+06 4.303763018186e+06 4.303396259833e+06 4.302171273947e+06 4.301017734955e+06 4.304266291147e+06 4.312357310562e+06 4.747463312620e+06 4.583485019536e+06 4.510916332076e+06 4.867672086537e+06 4.669569301394e+06 4.946727325133e+06 5.012525209567e+06 4.987797652197e+06 4.430465398563e+06 4.575940060813e+06 4.732104438553e+06 4.857982327061e+06 4.536801227218e+06 4.483806818610e+06 4.669660703814e+06 4.451802346445e+06 4.608390052628e+06 4.450147076947e+06 4.564229684145e+06 4.462190610526e+06 4.465791393496e+06 4.467085454998e+06 4.467714418301e+06 4.468234745153e+06 4.468806452096e+06 4.469382864760e+06 4.469713919393e+06 4.469019564924e+06 4.465194759890e+06 4.460738808492e+06 4.477253240773e+06 4.525236944759e+06 4.697737926725e+06 4.775654532040e+06 4.666080308021e+06 4.595819596485e+06 4.622261790044e+06 4.637352194401e+06 4.637521529751e+06 4.636255040855e+06 4.635121105142e+06 4.634260282627e+06 4.633649271990e+06 4.633201335529e+06 4.632709468378e+06 4.631669069142e+06 4.628656691059e+06 4.798450179134e+06 4.681817810638e+06 4.973547952462e+06 4.808981804690e+06 4.969831795575e+06 4.800925561102e+06 4.966582136605e+06 4.799399595043e+06 4.799117211224e+06 4.799245699140e+06 4.965180481227e+06 4.964747061885e+06 4.799708962848e+06 4.964885318526e+06 4.965483219397e+06 4.966618747006e+06 4.800514527855e+06 4.801913911040e+06 4.968622208639e+06 4.972437218411e+06 4.804273629937e+06 4.809016425662e+06 4.980912370402e+06 5.003642398911e+06 4.821736070597e+06 4.753512131013e+06 4.945612699720e+06 4.869559827169e+06 5.154077819164e+06 5.350208663799e+06 5.546339074834e+06 5.742469203634e+06 5.938599226794e+06 6.134729345390e+06 6.330859770208e+06 6.526990694303e+06 6.723122281727e+06 6.919254732333e+06 6.919255361201e+06 6.919255084256e+06 6.919253898215e+06 6.919251638117e+06 6.919248042597e+06 6.919242774241e+06 6.919235385758e+06 6.919225249077e+06 6.919211458008e+06 6.919192737488e+06 6.919167504217e+06 6.919134251994e+06 6.919094036453e+06 6.919055713619e+06 6.919056790061e+06 6.740671183506e+06 6.562127578432e+06 6.384200712441e+06 6.206208743589e+06 6.027566182255e+06 5.849965735100e+06 5.671564166385e+06 5.493140536431e+06 5.314765510290e+06 5.136416823391e+06 5.081908759793e+06 6.793066481556e+06 6.774115232390e+06 5.106059833629e+06 6.764696058566e+06 6.620864184872e+06 6.639226613429e+06 5.233457902414e+06 6.778876420223e+06 6.666503286949e+06 6.453464800636e+06 6.529068085433e+06 6.275427238069e+06 6.092337194877e+06 5.912031501839e+06 5.739041289363e+06 5.568747588034e+06 5.391205627134e+06 5.172564191104e+06 6.764768060339e+06 6.629977995303e+06 6.752283509882e+06 6.748922450085e+06 6.751113369912e+06 6.753851563569e+06 6.756491833636e+06 6.758591205985e+06 6.757735887776e+06 6.749474947754e+06 6.734894596509e+06 6.738693328662e+06 5.122335561876e+06 5.127051911245e+06 5.125095141082e+06 5.122194282589e+06 5.120276440188e+06 5.119574008013e+06 5.119537073037e+06 5.119073193694e+06 5.117320962702e+06 5.115032417014e+06 5.114560894090e+06 5.119081152692e+06 5.134042575489e+06 5.315774580606e+06 5.483157920125e+06 5.281155006263e+06 5.433616714082e+06 5.268789918753e+06 5.416163287244e+06 5.635775247273e+06 5.555540948554e+06 5.551228212690e+06 5.267991468096e+06 5.413545402903e+06 5.549263590353e+06 5.273381771962e+06 5.279218797751e+06 5.281045042779e+06 5.280279262210e+06 5.280346772828e+06 5.282932879577e+06 5.288665728489e+06 5.296759613627e+06 5.421696243734e+06 5.557176937446e+06 5.794901503343e+06 5.675298854435e+06 5.678993113890e+06 5.679311889638e+06 5.972465333376e+06 6.162419268236e+06 6.352663042157e+06 6.451678228817e+06 5.437625906499e+06 5.445196805291e+06 5.441203889699e+06 5.438369767487e+06 5.439477016038e+06 5.446012884859e+06 5.458858983573e+06 5.302339473306e+06 5.478715846225e+06 5.282750695091e+06 5.579608259917e+06 5.699760921309e+06 6.579202390988e+06 6.448776057447e+06 6.247778558131e+06 6.046150632250e+06 5.844055610741e+06 5.635420726959e+06 5.425786911220e+06 5.625320507420e+06 5.605017797464e+06 5.595368362143e+06 5.591803190592e+06 5.596187710651e+06 5.609420368671e+06 5.633663839091e+06 6.515445248594e+06 6.567907479768e+06 6.598256578268e+06 6.601767502186e+06 6.596868275310e+06 6.590530270758e+06 6.585518101714e+06 6.578864836194e+06 6.572054799609e+06 6.589266876000e+06 6.369330977313e+06 6.157985212011e+06 5.954885641783e+06 5.747668438256e+06 5.506691752466e+06 5.674471076831e+06 5.871347411736e+06 6.063362029409e+06 6.267809137843e+06 6.351581363903e+06 6.458436361547e+06 6.454473148961e+06 6.444414135514e+06 6.428553953058e+06 6.420599694416e+06 6.416803773020e+06 6.397856512030e+06 6.364945825557e+06 5.836837562112e+06 5.783637051037e+06 5.808087051487e+06 6.038328189762e+06 5.916072369428e+06 6.244723029933e+06 6.098865797270e+06 5.931591835032e+06 5.839221268927e+06 5.735588389875e+06 6.200808544927e+06 5.996171345495e+06 5.864257530000e+06 6.253369407307e+06 5.805119831040e+06 5.767720301205e+06 6.263616135624e+06 5.753488616880e+06 6.237269020912e+06 5.740396822968e+06 5.739392705857e+06 5.750031684669e+06 5.771555467667e+06 5.809437027015e+06 5.979398159032e+06 6.150001257778e+06 5.926752573461e+06 6.056340808129e+06 6.182142755914e+06 6.320243594104e+06 5.900237090082e+06 5.882822794322e+06 5.873827923104e+06 6.043792628459e+06 6.025993675316e+06 6.006330933034e+06 6.171178727751e+06 6.150981817113e+06 6.303674621538e+06 6.280481689012e+06 6.117479128952e+06 5.985726849345e+06 6.043038261539e+06 6.105618309211e+06 6.146890879139e+06 6.093411231054e+06 5.944913329149e+06 5.892072110654e+06 6.017897134849e+06 5.923913687288e+06 5.886801319016e+06 7.117100490647e+06 7.315174456907e+06 7.513254491563e+06 7.711326694877e+06 7.909392093517e+06 8.102053095153e+06 8.294711257153e+06 8.487367686030e+06 8.680023236