 TITLE = "Time curves in points"
 VARIABLES = "TIME " "PRESSURE1" "VELOCITY_X1" "VELOCITY_Y1" "VELOCITY_Z1" "DISPLACEMENT_X1" "DISPLACEMENT_Y1" "STRESS_XX" "STRESS_YY" "STRESS_ZZ"  p_(1st_Invariant)  q_(2nd_Invariant)   Effective_Strain
 ZONE T="POINT=POINT0"
0.000000000000e+00 3.000000000000e+06 0.000000000000e+00 0.000000000000e+00 0.000000000000e+00 0.000000000000e+00 0.000000000000e+00 -5.983503565783e+05 -4.387243392725e+06 -5.982712499163e+05 1.861288333073e+06 3.788932590097e+06  0.000000000000e+00
8.640000000000e+03 3.000000000000e+06 2.556771505624e-20 -1.515640105936e-17 0.000000000000e+00 0.000000000000e+00 -1.280477230952e-01 -1.192805758575e+06 -8.747242284918e+06 -1.192805765219e+06 3.710951269571e+06 7.554436523021e+06  1.422862485245e-04
