<?xml version="1.0"?>
<!-- Time step: 0 | Time: 0.000000000000e+00 -->
<VTKFile type="UnstructuredGrid" version="0.1" byte_order="LittleEndian">
  <UnstructuredGrid>
    <Piece NumberOfPoints="4239" NumberOfCells="8285">
      <Points>
        <DataArray type="Float64" NumberOfComponents="3" format="ascii">
          0.000000000000e+00 0.000000000000e+00 -3.000000000000e+02
          0.000000000000e+00 0.000000000000e+00 -3.200000033858e+02
          0.000000000000e+00 0.000000000000e+00 -3.400000067716e+02
          0.000000000000e+00 0.000000000000e+00 -3.600000101574e+02
          0.000000000000e+00 0.000000000000e+00 -3.800000135432e+02
          0.000000000000e+00 0.000000000000e+00 -4.000000169290e+02
          0.000000000000e+00 0.000000000000e+00 -4.200000203148e+02
          0.000000000000e+00 0.000000000000e+00 -4.400000237006e+02
          0.000000000000e+00 0.000000000000e+00 -4.600000270864e+02
          0.000000000000e+00 0.000000000000e+00 -4.800000304722e+02
          0.000000000000e+00 0.000000000000e+00 -5.000000338580e+02
          1.912732711206e+01 0.000000000000e+00 -5.000000671490e+02
          3.825465422413e+01 0.000000000000e+00 -5.000001004400e+02
          5.738198133619e+01 0.000000000000e+00 -5.000001337310e+02
          7.650930844825e+01 0.000000000000e+00 -5.000001670220e+02
          9.563663556031e+01 0.000000000000e+00 -5.000002003130e+02
          1.147639626724e+02 0.000000000000e+00 -5.000002336040e+02
          1.338912897844e+02 0.000000000000e+00 -5.000002668950e+02
          1.530186168965e+02 0.000000000000e+00 -5.000003001860e+02
          1.721459440086e+02 0.000000000000e+00 -5.000003334770e+02
          1.912732711206e+02 0.000000000000e+00 -5.000003667679e+02
          2.104005982327e+02 0.000000000000e+00 -5.000004000589e+02
          2.295279253448e+02 0.000000000000e+00 -5.000004333499e+02
          2.486552524568e+02 0.000000000000e+00 -5.000004666409e+02
          2.677825795689e+02 0.000000000000e+00 -5.000004999319e+02
          2.869099066809e+02 0.000000000000e+00 -5.000005332229e+02
          3.060372337930e+02 0.000000000000e+00 -5.000005665139e+02
          3.251645609051e+02 0.000000000000e+00 -5.000005998049e+02
          3.286911500212e+02 0.000000000000e+00 -4.800002834446e+02
          3.322177391373e+02 0.000000000000e+00 -4.599999670842e+02
          3.357443282534e+02 0.000000000000e+00 -4.399996507239e+02
          3.392709173695e+02 0.000000000000e+00 -4.199993343636e+02
          3.427975064856e+02 0.000000000000e+00 -3.999990180032e+02
          3.633680000000e+02 0.000000000000e+00 -4.000000000000e+02
          3.601600320156e+02 0.000000000000e+00 -4.182447086488e+02
          3.569520640312e+02 0.000000000000e+00 -4.364894172977e+02
          3.537440960467e+02 0.000000000000e+00 -4.547341259465e+02
          3.505361280623e+02 0.000000000000e+00 -4.729788345954e+02
          3.473281600779e+02 0.000000000000e+00 -4.912235432442e+02
          3.441201920935e+02 0.000000000000e+00 -5.094682518931e+02
          3.409122241091e+02 0.000000000000e+00 -5.277129605419e+02
          3.377042561247e+02 0.000000000000e+00 -5.459576691908e+02
          3.344962881402e+02 0.000000000000e+00 -5.642023778396e+02
          3.312883201558e+02 0.000000000000e+00 -5.824470864885e+02
          3.280803521714e+02 0.000000000000e+00 -6.006917951373e+02
          3.471443404324e+02 0.000000000000e+00 -6.006974714707e+02
          3.662083286933e+02 0.000000000000e+00 -6.007031478041e+02
          3.852723169543e+02 0.000000000000e+00 -6.007088241375e+02
          4.043363052152e+02 0.000000000000e+00 -6.007145004709e+02
          4.234002934762e+02 0.000000000000e+00 -6.007201768043e+02
          4.424642817371e+02 0.000000000000e+00 -6.007258531377e+02
          4.615282699981e+02 0.000000000000e+00 -6.007315294711e+02
          4.805922582590e+02 0.000000000000e+00 -6.007372058045e+02
          4.996562465200e+02 0.000000000000e+00 -6.007428821379e+02
          5.187202347809e+02 0.000000000000e+00 -6.007485584713e+02
          5.377842230419e+02 0.000000000000e+00 -6.007542348047e+02
          5.568482113029e+02 0.000000000000e+00 -6.007599111382e+02
          5.759121995638e+02 0.000000000000e+00 -6.007655874716e+02
          5.949761878248e+02 0.000000000000e+00 -6.007712638050e+02
          6.140401760857e+02 0.000000000000e+00 -6.007769401384e+02
          6.331041643467e+02 0.000000000000e+00 -6.007826164718e+02
          6.521681526076e+02 0.000000000000e+00 -6.007882928052e+02
          6.712321408686e+02 0.000000000000e+00 -6.007939691386e+02
          6.902961291295e+02 0.000000000000e+00 -6.007996454720e+02
          7.093601173905e+02 0.000000000000e+00 -6.008053218054e+02
          7.284241056514e+02 0.000000000000e+00 -6.008109981388e+02
          7.474880939124e+02 0.000000000000e+00 -6.008166744722e+02
          7.665520821733e+02 0.000000000000e+00 -6.008223508056e+02
          7.856160704343e+02 0.000000000000e+00 -6.008280271390e+02
          8.046800586952e+02 0.000000000000e+00 -6.008337034724e+02
          8.237440469562e+02 0.000000000000e+00 -6.008393798058e+02
          8.428080352171e+02 0.000000000000e+00 -6.008450561392e+02
          8.618720234781e+02 0.000000000000e+00 -6.008507324726e+02
          8.809360117390e+02 0.000000000000e+00 -6.008564088060e+02
          9.000000000000e+02 0.000000000000e+00 -6.008620851394e+02
          9.000000000000e+02 0.000000000000e+00 -5.820582048182e+02
          9.000000000000e+02 0.000000000000e+00 -5.632543244970e+02
          9.000000000000e+02 0.000000000000e+00 -5.444504441758e+02
          9.000000000000e+02 0.000000000000e+00 -5.256465638546e+02
          9.000000000000e+02 0.000000000000e+00 -5.068426835333e+02
          9.000000000000e+02 0.000000000000e+00 -4.880388032121e+02
          9.000000000000e+02 0.000000000000e+00 -4.692349228909e+02
          9.000000000000e+02 0.000000000000e+00 -4.504310425697e+02
          9.000000000000e+02 0.000000000000e+00 -4.316271622485e+02
          9.000000000000e+02 0.000000000000e+00 -4.128232819273e+02
          9.000000000000e+02 0.000000000000e+00 -3.940194016061e+02
          9.000000000000e+02 0.000000000000e+00 -3.752155212849e+02
          9.000000000000e+02 0.000000000000e+00 -3.564116409636e+02
          9.000000000000e+02 0.000000000000e+00 -3.376077606424e+02
          9.000000000000e+02 0.000000000000e+00 -3.188038803212e+02
          9.000000000000e+02 0.000000000000e+00 -3.000000000000e+02
          8.808510638298e+02 0.000000000000e+00 -3.000000000000e+02
          8.617021276596e+02 0.000000000000e+00 -3.000000000000e+02
          8.425531914894e+02 0.000000000000e+00 -3.000000000000e+02
          8.234042553191e+02 0.000000000000e+00 -3.000000000000e+02
          8.042553191489e+02 0.000000000000e+00 -3.000000000000e+02
          7.851063829787e+02 0.000000000000e+00 -3.000000000000e+02
          7.659574468085e+02 0.000000000000e+00 -3.000000000000e+02
          7.468085106383e+02 0.000000000000e+00 -3.000000000000e+02
          7.276595744681e+02 0.000000000000e+00 -3.000000000000e+02
          7.085106382979e+02 0.000000000000e+00 -3.000000000000e+02
          6.893617021277e+02 0.000000000000e+00 -3.000000000000e+02
          6.702127659574e+02 0.000000000000e+00 -3.000000000000e+02
          6.510638297872e+02 0.000000000000e+00 -3.000000000000e+02
          6.319148936170e+02 0.000000000000e+00 -3.000000000000e+02
          6.127659574468e+02 0.000000000000e+00 -3.000000000000e+02
          5.936170212766e+02 0.000000000000e+00 -3.000000000000e+02
          5.744680851064e+02 0.000000000000e+00 -3.000000000000e+02
          5.553191489362e+02 0.000000000000e+00 -3.000000000000e+02
          5.361702127660e+02 0.000000000000e+00 -3.000000000000e+02
          5.170212765957e+02 0.000000000000e+00 -3.000000000000e+02
          4.978723404255e+02 0.000000000000e+00 -3.000000000000e+02
          4.787234042553e+02 0.000000000000e+00 -3.000000000000e+02
          4.595744680851e+02 0.000000000000e+00 -3.000000000000e+02
          4.404255319149e+02 0.000000000000e+00 -3.000000000000e+02
          4.212765957447e+02 0.000000000000e+00 -3.000000000000e+02
          4.021276595745e+02 0.000000000000e+00 -3.000000000000e+02
          3.829787234043e+02 0.000000000000e+00 -3.000000000000e+02
          3.638297872340e+02 0.000000000000e+00 -3.000000000000e+02
          3.446808510638e+02 0.000000000000e+00 -3.000000000000e+02
          3.255319148936e+02 0.000000000000e+00 -3.000000000000e+02
          3.063829787234e+02 0.000000000000e+00 -3.000000000000e+02
          2.872340425532e+02 0.000000000000e+00 -3.000000000000e+02
          2.680851063830e+02 0.000000000000e+00 -3.000000000000e+02
          2.489361702128e+02 0.000000000000e+00 -3.000000000000e+02
          2.297872340426e+02 0.000000000000e+00 -3.000000000000e+02
          2.106382978723e+02 0.000000000000e+00 -3.000000000000e+02
          1.914893617021e+02 0.000000000000e+00 -3.000000000000e+02
          1.723404255319e+02 0.000000000000e+00 -3.000000000000e+02
          1.531914893617e+02 0.000000000000e+00 -3.000000000000e+02
          1.340425531915e+02 0.000000000000e+00 -3.000000000000e+02
          1.148936170213e+02 0.000000000000e+00 -3.000000000000e+02
          9.574468085106e+01 0.000000000000e+00 -3.000000000000e+02
          7.659574468085e+01 0.000000000000e+00 -3.000000000000e+02
          5.744680851064e+01 0.000000000000e+00 -3.000000000000e+02
          3.829787234043e+01 0.000000000000e+00 -3.000000000000e+02
          1.914893617021e+01 0.000000000000e+00 -3.000000000000e+02
          8.875310861917e+02 0.000000000000e+00 -5.885021893492e+02
          1.244858699708e+01 0.000000000000e+00 -3.126391296399e+02
          8.873857506203e+02 0.000000000000e+00 -3.123845169440e+02
          1.262677308526e+01 0.000000000000e+00 -4.869517013229e+02
          3.123565098502e+02 0.000000000000e+00 -4.842228482756e+02
[...]
      <PointData Scalars="PRESSURE1">
        <DataArray type="Float64" Name="PRESSURE1" format="ascii">
          2.943000000000e+06 3.139200033215e+06 3.335400066429e+06 3.531600099644e+06 3.727800132859e+06 3.924000166073e+06 4.120200199288e+06 4.316400232503e+06 4.512600265717e+06 4.708800298932e+06 4.905000332147e+06 4.905000658731e+06 4.905000985316e+06 4.905001311901e+06 4.905001638486e+06 4.905001965070e+06 4.905002291655e+06 4.905002618240e+06 4.905002944824e+06 4.905003271409e+06 4.905003597994e+06 4.905003924578e+06 4.905004251163e+06 4.905004577748e+06 4.905004904332e+06 4.905005230917e+06 4.905005557502e+06 4.905005884086e+06 4.708802780591e+06 4.512599677096e+06 4.316396573601e+06 4.120193470106e+06 3.923990366612e+06 3.924000000000e+06 4.102980591845e+06 4.281961183690e+06 4.460941775536e+06 4.639922367381e+06 4.818902959226e+06 4.997883551071e+06 5.176864142916e+06 5.355844734761e+06 5.534825326607e+06 5.713805918452e+06 5.892786510297e+06 5.892842195128e+06 5.892897879958e+06 5.892953564789e+06 5.893009249620e+06 5.893064934450e+06 5.893120619281e+06 5.893176304112e+06 5.893231988943e+06 5.893287673773e+06 5.893343358604e+06 5.893399043435e+06 5.893454728265e+06 5.893510413096e+06 5.893566097927e+06 5.893621782757e+06 5.893677467588e+06 5.893733152419e+06 5.893788837249e+06 5.893844522080e+06 5.893900206911e+06 5.893955891741e+06 5.894011576572e+06 5.894067261403e+06 5.894122946234e+06 5.894178631064e+06 5.894234315895e+06 5.894290000726e+06 5.894345685556e+06 5.894401370387e+06 5.894457055218e+06 5.709990989267e+06 5.525524923315e+06 5.341058857364e+06 5.156592791413e+06 4.972126725462e+06 4.787660659511e+06 4.603194593560e+06 4.418728527609e+06 4.234262461658e+06 4.049796395707e+06 3.865330329756e+06 3.680864263804e+06 3.496398197853e+06 3.311932131902e+06 3.127466065951e+06 2.943000000000e+06 2.943000000000e+06 2.943000000000e+06 2.943000000000e+06 2.943000000000e+06 2.943000000000e+06 2.943000000000e+06 2.943000000000e+06 2.943000000000e+06 2.943000000000e+06 2.943000000000e+06 2.943000000000e+06 2.943000000000e+06 2.943000000000e+06 2.943000000000e+06 2.943000000000e+06 2.943000000000e+06 2.943000000000e+06 2.943000000000e+06 2.943000000000e+06 2.943000000000e+06 2.943000000000e+06 2.943000000000e+06 2.943000000000e+06 2.943000000000e+06 2.943000000000e+06 2.943000000000e+06 2.943000000000e+06 2.943000000000e+06 2.943000000000e+06 2.943000000000e+06 2.943000000000e+06 2.943000000000e+06 2.943000000000e+06 2.943000000000e+06 2.943000000000e+06 2.943000000000e+06 2.943000000000e+06 2.943000000000e+06 2.943000000000e+06 2.943000000000e+06 2.943000000000e+06 2.943000000000e+06 2.943000000000e+06 2.943000000000e+06 2.943000000000e+06 2.943000000000e+06 5.773206477516e+06 3.066989861768e+06 3.064492111221e+06 4.776996189978e+06 4.750226141584e+06 4.747450759507e+06 3.091313112149e+06 3.215285057241e+06 5.623150793494e+06 5.744002942991e+06 3.094208520060e+06 4.759022655410e+06 3.218805027083e+06 4.618636434003e+06 4.584484918513e+06 4.638307974529e+06 4.749898711838e+06 4.604763238393e+06 4.743077003846e+06 4.740342222862e+06 4.738937246911e+06 4.737761887987e+06 4.736792607838e+06 4.736826691962e+06 4.738749192906e+06 4.742029234441e+06 4.744666194527e+06 4.744611530251e+06 4.740772536799e+06 4.735359943508e+06 4.403786844282e+06 4.492127484968e+06 4.201690540843e+06 4.013764783017e+06 4.543644663818e+06 3.107990409604e+06 3.113233658819e+06 3.111715322336e+06 3.108935025240e+06 3.106688444507e+06 3.105307603749e+06 3.104696808468e+06 3.104623975780e+06 3.104819566176e+06 3.105068289556e+06 3.105253220209e+06 3.105323372162e+06 3.105229801120e+06 3.104913875978e+06 3.104398693830e+06 3.103880099019e+06 3.103634477939e+06 3.103789158163e+06 3.104227964721e+06 3.104728981418e+06 3.105137197691e+06 3.105407537466e+06 3.105559787491e+06 3.105633488979e+06 3.105664533394e+06 3.105676454411e+06 3.105681015753e+06 3.105682781641e+06 3.105683340565e+06 3.105683501226e+06 3.105683713421e+06 3.105683736052e+06 3.105682496244e+06 3.105677427910e+06 3.105659990713e+06 3.105604099529e+06 3.105449513447e+06 3.105097697740e+06 3.104466762314e+06 3.103655792768e+06 3.103457378501e+06 3.105344806120e+06 3.108145939504e+06 3.402502146776e+06 3.592931560471e+06 3.777731741061e+06 3.960682027112e+06 4.143728157963e+06 4.327400715959e+06 4.511677895644e+06 4.696225748409e+06 4.880475253547e+06 5.064129225904e+06 5.248486303838e+06 5.437437815813e+06 5.730127866393e+06 5.731735205456e+06 5.731807700985e+06 5.730034216174e+06 5.728605551479e+06 5.728670415777e+06 5.729831100040e+06 5.731055219981e+06 5.731734597823e+06 5.731879873101e+06 5.731751009457e+06 5.731559974173e+06 5.731407674952e+06 5.731325625911e+06 5.731312560232e+06 5.731349920299e+06 5.731410398569e+06 5.731463040301e+06 5.731477026982e+06 5.731460993582e+06 5.731531139853e+06 5.731688353544e+06 5.731060776732e+06 5.727418827407e+06 5.718634897372e+06 5.705884629207e+06 5.705342658525e+06 5.491576579607e+06 5.267439628151e+06 5.089063529826e+06 4.925677139925e+06 4.756710550392e+06 4.575552168354e+06 4.390862369251e+06 4.213246968218e+06 4.033490771208e+06 5.533222286206e+06 5.337276280688e+06 5.152675038310e+06 5.012686884096e+06 5.558256563304e+06 5.569225938818e+06 5.570623684998e+06 4.877992436166e+06 5.569656077192e+06 5.569371873577e+06 5.569553061129e+06 5.569552237459e+06 5.569348224309e+06 5.569091070853e+06 5.568875600234e+06 5.568761274831e+06 5.568795902107e+06 5.569007609905e+06 5.569378883093e+06 5.569787425976e+06 5.569884981833e+06 5.568997750934e+06 5.566462941474e+06 5.562716521205e+06 5.560250497306e+06 5.561986872718e+06 5.567500826282e+06 5.571891923525e+06 5.567461690289e+06 5.548763467089e+06 3.411573399819e+06 3.621171323504e+06 3.828117071290e+06 4.026045420244e+06 4.221864473237e+06 4.422189990811e+06 3.268788918635e+06 3.289568313627e+06 3.285325060729e+06 3.278117458165e+06 3.272311882699e+06 3.268452988048e+06 3.266359736928e+06 3.265695526733e+06 3.265932954492e+06 3.266510113702e+06 3.267038649215e+06 3.267321975462e+06 3.267227815638e+06 3.266567615989e+06 3.265215414134e+06 3.263499033487e+06 3.262272525642e+06 3.262251648316e+06 3.263354284591e+06 3.264898435127e+06 3.266274619381e+06 3.267247572008e+06 3.267833092100e+06 3.268137315995e+06 3.268275577179e+06 3.268332862496e+06 3.268356020658e+06 3.268365141499e+06 3.268367787388e+06 3.268367722587e+06 3.268367637683e+06 3.268368574761e+06 3.268369202475e+06 3.268364951277e+06 3.268342001506e+06 3.268264476259e+06 3.268060259464e+06 3.267599135024e+06 3.266677249819e+06 3.265147312594e+06 3.263084789963e+06 3.263454179006e+06 3.272220115770e+06 4.581486956231e+06 4.406272611293e+06 4.570419238563e+06 4.584832334072e+06 4.588464133407e+06 4.584219076465e+06 4.575817388705e+06 4.568762981774e+06 4.567082498021e+06 4.568974018903e+06 4.571337543508e+06 4.573399080218e+06 4.575722015928e+06 4.407698858931e+06 3.292139039687e+06 3.507626913971e+06 3.446254694417e+06 3.419641051409e+06 3.693615566660e+06 3.873756944142e+06 4.054329863415e+06 3.619956016981e+06 3.567622528131e+06 4.236581085984e+06 3.790915733224e+06 3.966149305628e+06 4.146021827008e+06 3.715079856647e+06 4.420410062028e+06 4.328960824922e+06 4.605334317926e+06 4.790245274625e+06 4.973479781919e+06 5.154312682855e+06 5.337770373244e+06 5.401518813894e+06 5.236367115999e+06 5.420561305352e+06 5.298235251935e+06 5.066364295953e+06 5.160565278504e+06 4.514323887208e+06 4.701079096842e+06 4.886569838574e+06 4.988023404122e+06 3.418285171755e+06 3.551239069073e+06 3.654752223651e+06 3.425099403339e+06 3.427786766868e+06 3.429451985340e+06 3.430302666530e+06 3.430763485994e+06 3.430983595210e+06 3.431053063148e+06 3.431062431244e+06 3.431060446235e+06 3.431059394063e+06 3.431061282196e+06 3.431065481620e+06 3.431066930463e+06 3.431057033364e+06 3.431024352016e+06 3.430946318620e+06 3.430764563800e+06 3.430346648505e+06 3.429465633009e+06 3.427847161762e+06 3.425284435963e+06 3.421806445145e+06 3.418222332655e+06 3.416420722582e+06 3.417892188548e+06 3.421805707970e+06 3.425696915151e+06 3.428014170021e+06 3.428870877852e+06 3.428803227837e+06 3.428105188138e+06 3.427035927637e+06 3.426090771651e+06 3.426155415154e+06 3.428266451630e+06 3.432945051275e+06 3.440406630004e+06 3.451815642762e+06 5.411450990426e+06 5.272136938414e+06 5.396049162917e+06 5.386700804851e+06 5.389365373730e+06 5.398193410229e+06 5.405007252127e+06 5.407723555426e+06 5.407840832095e+06 5.407104420877e+06 5.406341398481e+06 5.405838153057e+06 5.405658265798e+06 5.405770448977e+06 5.406113914311e+06 5.406633541391e+06 5.407252168162e+06 5.407697122834e+06 5.407297050227e+06 5.406089870314e+06 5.407550068370e+06 5.412938182898e+06 5.413042456443e+06 5.385926450653e+06 5.102484836075e+06 3.587646833799e+06 3.660158533529e+06 3.469067448745e+06 3.494112920480e+06 3.733775989833e+06 3.665030698518e+06 3.629456715780e+06 3.935386765091e+06 4.126026163403e+06 4.319812381129e+06 4.391586549810e+06 4.427034250607e+06 4.213370622378e+06 4.275533226188e+06 4.039126309349e+06 3.858668453974e+06 4.128060291098e+06 3.973201907935e+06 3.805761656572e+06 3.610196972971e+06 3.776507562169e+06 3.599274613475e+06 3.766179574202e+06 3.591264137239e+06 3.586280960237e+06 3.757476798752e+06 3.745909063623e+06 4.439155699085e+06 4.301909655104e+06 4.192033280392e+06 4.075783872076e+06 3.932826728981e+06 4.435262556709e+06 4.421139584293e+06 4.401766164301e+06 4.393484351755e+06 4.398061556059e+06 4.402564179558e+06 4.405682005574e+06 4.407338853326e+06 3.585274901828e+06 3.742625497467e+06 3.586582064999e+06 3.588407066996e+06 3.589784455503e+06 3.590273312680e+06 3.589583531308e+06 3.587130103426e+06 3.581019507359e+06 3.571548075687e+06 3.564642633964e+06 3.565591433864e+06 3.572645540175e+06 3.580303830019e+06 3.585970835030e+06 3.589749450896e+06 3.591912340064e+06 3.592972930508e+06 3.593454727557e+06 3.593681190908e+06 3.593789406256e+06 3.593829749979e+06 3.593830054307e+06 3.593814183634e+06 3.593797666256e+06 3.593783327014e+06 3.593774867764e+06 3.593789912928e+06 3.593806782129e+06 3.593658409202e+06 3.593140765345e+06 3.592356225229e+06 3.591299942397e+06 3.588364776404e+06 3.744762520648e+06 4.299520735305e+06 4.179939877588e+06 4.050454418682e+06 3.916945556077e+06 3.939801169358e+06 3.905756217304e+06 3.894901448880e+06 3.900553037467e+06 3.747900196545e+06 3.750338911021e+06 3.751450674619e+06 3.750952187447e+06 3.748799576748e+06 3.744669154876e+06 3.728841395253e+06 3.707719969275e+06 3.701044939678e+06 3.713385726048e+06 3.730498985520e+06 3.741071713237e+06 3.748561188341e+06 3.753004061577e+06 3.755097237575e+06 3.755990504293e+06 3.756431746360e+06 3.756676800916e+06 3.756785659713e+06 3.756796133571e+06 3.756755553747e+06 3.756701108026e+06 3.756639057338e+06 3.756562296146e+06 3.756520792569e+06 3.756630951149e+06 3.756805482353e+06 3.756381175735e+06 3.755005551902e+06 3.754250600446e+06 3.754863755394e+06 4.161790106283e+06 4.038271321315e+06 3.906525387474e+06 3.877931126434e+06 4.054893814415e+06 4.236595430262e+06 4.421808428513e+06 3.780187217316e+06 4.610640617251e+06 4.801428650310e+06 4.911663672079e+06 4.281685458107e+06 4.124013382842e+06 4.074272332887e+06 4.025493955797e+06 4.051685300197e+06 4.250733299181e+06 4.202889752339e+06 4.223787557796e+06 4.064398060113e+06 4.233020236108e+06 4.071336744160e+06 3.910745845119e+06 4.238107284241e+06 4.240552374806e+06 4.075055843164e+06 3.912893974047e+06 4.240052235049e+06 4.075980294998e+06 3.912722410478e+06 3.910024628912e+06 4.073223269158e+06 4.233664490703e+06 4.064990806005e+06 3.906318906667e+06 3.910766070224e+06 3.851679555327e+06 3.822844415842e+06 3.826477526010e+06 3.878962586055e+06 3.892578467796e+06 3.905746042423e+06 3.914293810276e+06 3.917828573124e+06 3.918915055892e+06 3.919473664074e+06 3.919908796905e+06 3.920154131411e+06 3.920201937945e+06 3.920125285128e+06 3.920001702435e+06 3.919854313436e+06 3.919640615229e+06 3.919352226918e+06 3.919252973106e+06 3.919833702193e+06 3.920704221186e+06 3.918951979728e+06 3.914598494397e+06 3.916806682683e+06 4.055599213300e+06 4.207734105357e+06 4.313831063924e+06 4.170179219491e+06 4.070557955342e+06 3.915894814682e+06 4.037632441244e+06 4.159204458094e+06 4.310489193681e+06 4.503091257199e+06 4.701824260658e+06 4.059720920310e+06 4.201049361345e+06 4.077381002027e+06 4.083233475822e+06 4.083024953324e+06 4.083010224289e+06 4.083664854244e+06 4.084184871836e+06 4.084334573209e+06 4.084223203483e+06 4.083999235358e+06 4.083735759706e+06 4.083373683253e+06 4.082741489682e+06 4.081821374787e+06 4.081675198222e+06 4.084258835488e+06 4.088297332642e+06 4.078858520120e+06 4.063619624852e+06 5.238932982521e+06 5.043120507580e+06 5.207073766778e+06 5.202083595384e+06 5.222638038646e+06 5.239769491783e+06 5.246463970847e+06 5.246437069732e+06 5.244851552224e+06 5.243372290281e+06 5.242357570564e+06 5.241878540279e+06 5.241869882220e+06 5.242247598716e+06 5.242968028821e+06 5.244051622702e+06 5.245449040575e+06 5.246394905810e+06 5.243819880565e+06 5.237525981231e+06 5.246532696887e+06 5.268211852150e+06 5.281119759860e+06 5.190790642609e+06 5.017002423114e+06 3.743087327486e+06 3.727276922139e+06 3.934935063195e+06 4.078450692064e+06 4.852976388381e+06 5.013647331434e+06 5.145705309009e+06 5.107374143796e+06 5.011417705268e+06 4.862065896407e+06 4.973697606826e+06 5.030290418560e+06 5.073137588964e+06 5.090526862331e+06 5.087240677905e+06 5.082912724141e+06 5.080165714907e+06 5.078325490967e+06 5.077403681878e+06 5.077166465828e+06 5.077447911224e+06 5.078189462283e+06 5.079477885821e+06 5.081605136448e+06 5.084958054390e+06 5.088429085043e+06 5.076213288011e+06 5.043511284290e+06 4.927234921309e+06 4.243762146102e+06 4.395622378560e+06 4.711702621596e+06 4.823722853975e+06 4.515516582645e+06 4.326908878861e+06 4.142618378875e+06 3.961090754456e+06 3.865376649525e+06 4.045843026283e+06 4.140393930481e+06 4.231188145727e+06 4.415076853301e+06 4.317235673565e+06 4.235597727085e+06 4.179846719866e+06 4.213522343393e+06 4.608609144546e+06 4.492287594786e+06 4.389911184595e+06 4.308599299179e+06 4.274593813693e+06 4.252857431205e+06 4.242539211326e+06 4.242630213549e+06 4.245647489255e+06 4.247278735626e+06 4.248054992039e+06 4.248523653290e+06 4.248930851306e+06 4.249286295402e+06 4.249432269633e+06 4.249062594687e+06 4.247832521405e+06 4.246673623909e+06 4.249925355775e+06 4.258028730744e+06 4.694051426907e+06 4.529736385479e+06 4.457018667873e+06 4.814507191681e+06 4.615997494316e+06 4.893724929128e+06 4.959658084170e+06 4.934879772302e+06 4.376402489442e+06 4.522175950352e+06 4.678661119597e+06 4.804797649437e+06 4.482956703020e+06 4.429853361905e+06 4.616089086431e+06 4.397783011198e+06 4.554692471402e+06 4.396124142997e+06 4.510441255661e+06 4.408192118307e+06 4.411799847433e+06 4.413095946657e+06 4.413725376897e+06 4.414245699709e+06 4.414817209367e+06 4.415393076661e+06 4.415722657321e+06 4.415024230864e+06 4.411188421836e+06 4.406719766569e+06 4.423263798883e+06 4.471339162113e+06 4.644183241332e+06 4.722267964719e+06 4.612475822425e+06 4.542075371163e+06 4.568575416294e+06 4.583700670890e+06 4.583873621093e+06 4.582607105829e+06 4.581472869441e+06 4.580611866574e+06 4.580000828944e+06 4.579552906603e+06 4.579060724473e+06 4.578018692047e+06 4.575000482833e+06 4.745143153361e+06 4.628271028514e+06 4.920600802315e+06 4.755696324238e+06 4.916876942427e+06 4.747623311107e+06 4.913620420218e+06 4.746093856654e+06 4.745810363749e+06 4.745938365713e+06 4.912215548767e+06 4.911780708445e+06 4.746401555011e+06 4.911918471271e+06 4.912516509945e+06 4.913652887330e+06 4.747207405661e+06 4.748607867919e+06 4.915658491835e+06 4.919478757057e+06 4.750970105137e+06 4.755719608372e+06 4.927968037343e+06 4.950741444857e+06 4.768461062855e+06 4.700091860831e+06 4.892588027969e+06 4.816372700470e+06 5.101540769581e+06 5.298081207014e+06 5.494621644448e+06 5.691162081882e+06 5.887702519316e+06 6.084242956749e+06 6.280783394183e+06 6.477323831617e+06 6.673864269050e+06 1.000000000000e+08 1.000000000000e+08 1.000000000000e+08 1.000000000000e+08 1.000000000000e+08 1.000000000000e+08 1.000000000000e+08 1.000000000000e+08 1.000000000000e+08 1.000000000000e+08 1.000000000000e+08 1.000000000000e+08 1.000000000000e+08 1.000000000000e+08 1.000000000000e+08 1.000000000000e+08 6.691746111057e+06 6.513072088360e+06 6.334398065663e+06 6.155724042966e+06 5.977050020269e+06 5.798375997572e+06 5.619701974875e+06 5.441027952178e+06 5.262353929481e+06 5.083679906783e+06 5.029221042907e+06 6.743954209870e+06 6.725243434759e+06 5.053422049065e+06 6.715525391661e+06 6.571820175063e+06 6.589794000564e+06 5.181086425926e+06 6.729959982519e+06 6.617419962442e+06 6.404308271140e+06 6.479727032653e+06 6.224957113294e+06 6.041833982489e+06 5.861267274896e+06 5.686961293930e+06 5.516695091982e+06 5.338911271648e+06 5.119890050867e+06 6.715765633050e+06 6.580745533318e+06 6.703206142148e+06 6.699802618447e+06 6.701973482123e+06 6.704700047395e+06 6.707333290200e+06 6.709427833512e+06 6.708563911744e+06 6.700280654599e+06 6.685666086277e+06 6.689470069169e+06 5.069730713528e+06 5.074455173725e+06 5.072491768573e+06 5.069581337629e+06 5.067654762595e+06 5.066944560632e+06 5.066899169393e+06 5.066423242971e+06 5.064652944213e+06 5.062341422088e+06 5.061846815694e+06 5.066351028428e+06 5.081316058354e+06 5.263377874870e+06 5.431044478557e+06 5.228729779097e+06 5.381469029236e+06 5.216375365689e+06 5.364030855583e+06 5.583903046302e+06 5.503608373498e+06 5.499351831851e+06 5.215604947731e+06 5.361447244244e+06 5.497435147182e+06 5.221030069989e+06 5.226897445002e+06 5.228740942989e+06 5.227983251587e+06 5.228057900717e+06 5.230654528274e+06 5.236403119657e+06 5.244516663719e+06 5.369645175164e+06 5.505401575889e+06 5.743494400981e+06 5.623657913007e+06 5.627430722123e+06 5.627789910154e+06 5.921654915176e+06 6.111991084161e+06 6.302796262439e+06 6.402020974076e+06 5.385630938077e+06 5.393233985530e+06 5.389243568420e+06 5.386410851736e+06 5.387525597010e+06 5.394078876783e+06 5.406954558149e+06 5.250110113268e+06 5.426854901263e+06 5.230481584594e+06 5.527906822112e+06 5.648309861936e+06 6.529645435249e+06 6.398946176212e+06 6.197528721107e+06 5.995479044913e+06 5.792961059742e+06 5.583889530370e+06 5.373817247477e+06 5.573736533720e+06 5.553402278096e+06 5.543739374629e+06 5.540171385276e+06 5.544568403456e+06 5.557831146326e+06 5.582127045865e+06 6.465757114271e+06 6.518332156982e+06 6.548748543270e+06 6.552271860181e+06 6.547369276106e+06 6.541027474226e+06 6.536018018201e+06 6.529369828351e+06 6.522575212278e+06 6.539872849369e+06 6.319335860707e+06 6.107548012373e+06 5.904023199666e+06 5.696371981032e+06 5.454890672889e+06 5.623020807359e+06 5.820310025297e+06 6.012727209096e+06 6.217602752441e+06 6.301552515932e+06 6.408633815642e+06 6.404665442718e+06 6.394589942721e+06 6.378702804955e+06 6.370740624908e+06 6.366949057676e+06 6.347978730575e+06 6.315026539580e+06 5.785642511968e+06 5.732341450546e+06 5.756868532237e+06 5.987639641559e+06 5.865095830112e+06 6.194541704297e+06 6.048326213979e+06 5.880663039145e+06 5.788088267219e+06 5.684233095490e+06 6.150496149019e+06 5.945395705799e+06 5.813188541449e+06 6.203163622702e+06 5.753926131154e+06 5.716451964254e+06 6.213424075429e+06 5.702194878377e+06 6.187013326850e+06 5.689078746753e+06 5.688074867258e+06 5.698737857981e+06 5.720307921596e+06 5.758269595134e+06 5.928587649205e+06 6.099548924788e+06 5.875831667068e+06 6.005692346096e+06 6.131759231395e+06 6.270151618752e+06 5.849260401272e+06 5.831809126583e+06 5.822794632777e+06 5.993118418562e+06 5.975282717106e+06 5.955579089688e+06 6.120773778027e+06 6.100536175564e+06 6.253550769249e+06 6.230312649648e+06 6.066964511837e+06 5.934931673240e+06 5.992366307987e+06 6.055082942090e+06 6.096447976949e+06 6.042853478029e+06 5.894026586709e+06 5.841072155051e+06 5.967172132330e+06 5.872985258298e+06 5.835794653552e+06 1.000000000000e+08 1.000000000000e+08 1.000000000000e+08 1.000000000000e+08 1.000000000000e+08 8.055677333118e+06 8.248711636583e+06 8.441745940049e+06 8.634780243