<?xml version="1.0"?>
<!-- Time step: 1 | Time: 1.000000000000e+10 -->
<VTKFile type="UnstructuredGrid" version="0.1" byte_order="LittleEndian">
  <UnstructuredGrid>
    <Piece NumberOfPoints="4239" NumberOfCells="8285">
      <Points>
        <DataArray type="Float64" NumberOfComponents="3" format="ascii">
          0.000000000000e+00 0.000000000000e+00 -3.000000000000e+02
          0.000000000000e+00 0.000000000000e+00 -3.200000033858e+02
          0.000000000000e+00 0.000000000000e+00 -3.400000067716e+02
          0.000000000000e+00 0.000000000000e+00 -3.600000101574e+02
          0.000000000000e+00 0.000000000000e+00 -3.800000135432e+02
          0.000000000000e+00 0.000000000000e+00 -4.000000169290e+02
          0.000000000000e+00 0.000000000000e+00 -4.200000203148e+02
          0.000000000000e+00 0.000000000000e+00 -4.400000237006e+02
          0.000000000000e+00 0.000000000000e+00 -4.600000270864e+02
          0.000000000000e+00 0.000000000000e+00 -4.800000304722e+02
          0.000000000000e+00 0.000000000000e+00 -5.000000338580e+02
          1.912732711206e+01 0.000000000000e+00 -5.000000671490e+02
          3.825465422413e+01 0.000000000000e+00 -5.000001004400e+02
          5.738198133619e+01 0.000000000000e+00 -5.000001337310e+02
          7.650930844825e+01 0.000000000000e+00 -5.000001670220e+02
          9.563663556031e+01 0.000000000000e+00 -5.000002003130e+02
          1.147639626724e+02 0.000000000000e+00 -5.000002336040e+02
          1.338912897844e+02 0.000000000000e+00 -5.000002668950e+02
          1.530186168965e+02 0.000000000000e+00 -5.000003001860e+02
          1.721459440086e+02 0.000000000000e+00 -5.000003334770e+02
          1.912732711206e+02 0.000000000000e+00 -5.000003667679e+02
          2.104005982327e+02 0.000000000000e+00 -5.000004000589e+02
          2.295279253448e+02 0.000000000000e+00 -5.000004333499e+02
          2.486552524568e+02 0.000000000000e+00 -5.000004666409e+02
          2.677825795689e+02 0.000000000000e+00 -5.000004999319e+02
          2.869099066809e+02 0.000000000000e+00 -5.000005332229e+02
          3.060372337930e+02 0.000000000000e+00 -5.000005665139e+02
          3.251645609051e+02 0.000000000000e+00 -5.000005998049e+02
          3.286911500212e+02 0.000000000000e+00 -4.800002834446e+02
          3.322177391373e+02 0.000000000000e+00 -4.599999670842e+02
          3.357443282534e+02 0.000000000000e+00 -4.399996507239e+02
          3.392709173695e+02 0.000000000000e+00 -4.199993343636e+02
          3.427975064856e+02 0.000000000000e+00 -3.999990180032e+02
          3.633680000000e+02 0.000000000000e+00 -4.000000000000e+02
          3.601600320156e+02 0.000000000000e+00 -4.182447086488e+02
          3.569520640312e+02 0.000000000000e+00 -4.364894172977e+02
          3.537440960467e+02 0.000000000000e+00 -4.547341259465e+02
          3.505361280623e+02 0.000000000000e+00 -4.729788345954e+02
          3.473281600779e+02 0.000000000000e+00 -4.912235432442e+02
          3.441201920935e+02 0.000000000000e+00 -5.094682518931e+02
          3.409122241091e+02 0.000000000000e+00 -5.277129605419e+02
          3.377042561247e+02 0.000000000000e+00 -5.459576691908e+02
          3.344962881402e+02 0.000000000000e+00 -5.642023778396e+02
          3.312883201558e+02 0.000000000000e+00 -5.824470864885e+02
          3.280803521714e+02 0.000000000000e+00 -6.006917951373e+02
          3.471443404324e+02 0.000000000000e+00 -6.006974714707e+02
          3.662083286933e+02 0.000000000000e+00 -6.007031478041e+02
          3.852723169543e+02 0.000000000000e+00 -6.007088241375e+02
          4.043363052152e+02 0.000000000000e+00 -6.007145004709e+02
          4.234002934762e+02 0.000000000000e+00 -6.007201768043e+02
          4.424642817371e+02 0.000000000000e+00 -6.007258531377e+02
          4.615282699981e+02 0.000000000000e+00 -6.007315294711e+02
          4.805922582590e+02 0.000000000000e+00 -6.007372058045e+02
          4.996562465200e+02 0.000000000000e+00 -6.007428821379e+02
          5.187202347809e+02 0.000000000000e+00 -6.007485584713e+02
          5.377842230419e+02 0.000000000000e+00 -6.007542348047e+02
          5.568482113029e+02 0.000000000000e+00 -6.007599111382e+02
          5.759121995638e+02 0.000000000000e+00 -6.007655874716e+02
          5.949761878248e+02 0.000000000000e+00 -6.007712638050e+02
          6.140401760857e+02 0.000000000000e+00 -6.007769401384e+02
          6.331041643467e+02 0.000000000000e+00 -6.007826164718e+02
          6.521681526076e+02 0.000000000000e+00 -6.007882928052e+02
          6.712321408686e+02 0.000000000000e+00 -6.007939691386e+02
          6.902961291295e+02 0.000000000000e+00 -6.007996454720e+02
          7.093601173905e+02 0.000000000000e+00 -6.008053218054e+02
          7.284241056514e+02 0.000000000000e+00 -6.008109981388e+02
          7.474880939124e+02 0.000000000000e+00 -6.008166744722e+02
          7.665520821733e+02 0.000000000000e+00 -6.008223508056e+02
          7.856160704343e+02 0.000000000000e+00 -6.008280271390e+02
          8.046800586952e+02 0.000000000000e+00 -6.008337034724e+02
          8.237440469562e+02 0.000000000000e+00 -6.008393798058e+02
          8.428080352171e+02 0.000000000000e+00 -6.008450561392e+02
          8.618720234781e+02 0.000000000000e+00 -6.008507324726e+02
          8.809360117390e+02 0.000000000000e+00 -6.008564088060e+02
          9.000000000000e+02 0.000000000000e+00 -6.008620851394e+02
          9.000000000000e+02 0.000000000000e+00 -5.820582048182e+02
          9.000000000000e+02 0.000000000000e+00 -5.632543244970e+02
          9.000000000000e+02 0.000000000000e+00 -5.444504441758e+02
          9.000000000000e+02 0.000000000000e+00 -5.256465638546e+02
          9.000000000000e+02 0.000000000000e+00 -5.068426835333e+02
          9.000000000000e+02 0.000000000000e+00 -4.880388032121e+02
          9.000000000000e+02 0.000000000000e+00 -4.692349228909e+02
          9.000000000000e+02 0.000000000000e+00 -4.504310425697e+02
          9.000000000000e+02 0.000000000000e+00 -4.316271622485e+02
          9.000000000000e+02 0.000000000000e+00 -4.128232819273e+02
          9.000000000000e+02 0.000000000000e+00 -3.940194016061e+02
          9.000000000000e+02 0.000000000000e+00 -3.752155212849e+02
          9.000000000000e+02 0.000000000000e+00 -3.564116409636e+02
          9.000000000000e+02 0.000000000000e+00 -3.376077606424e+02
          9.000000000000e+02 0.000000000000e+00 -3.188038803212e+02
          9.000000000000e+02 0.000000000000e+00 -3.000000000000e+02
          8.808510638298e+02 0.000000000000e+00 -3.000000000000e+02
          8.617021276596e+02 0.000000000000e+00 -3.000000000000e+02
          8.425531914894e+02 0.000000000000e+00 -3.000000000000e+02
          8.234042553191e+02 0.000000000000e+00 -3.000000000000e+02
          8.042553191489e+02 0.000000000000e+00 -3.000000000000e+02
          7.851063829787e+02 0.000000000000e+00 -3.000000000000e+02
          7.659574468085e+02 0.000000000000e+00 -3.000000000000e+02
          7.468085106383e+02 0.000000000000e+00 -3.000000000000e+02
          7.276595744681e+02 0.000000000000e+00 -3.000000000000e+02
          7.085106382979e+02 0.000000000000e+00 -3.000000000000e+02
          6.893617021277e+02 0.000000000000e+00 -3.000000000000e+02
          6.702127659574e+02 0.000000000000e+00 -3.000000000000e+02
          6.510638297872e+02 0.000000000000e+00 -3.000000000000e+02
          6.319148936170e+02 0.000000000000e+00 -3.000000000000e+02
          6.127659574468e+02 0.000000000000e+00 -3.000000000000e+02
          5.936170212766e+02 0.000000000000e+00 -3.000000000000e+02
          5.744680851064e+02 0.000000000000e+00 -3.000000000000e+02
          5.553191489362e+02 0.000000000000e+00 -3.000000000000e+02
          5.361702127660e+02 0.000000000000e+00 -3.000000000000e+02
          5.170212765957e+02 0.000000000000e+00 -3.000000000000e+02
          4.978723404255e+02 0.000000000000e+00 -3.000000000000e+02
          4.787234042553e+02 0.000000000000e+00 -3.000000000000e+02
          4.595744680851e+02 0.000000000000e+00 -3.000000000000e+02
          4.404255319149e+02 0.000000000000e+00 -3.000000000000e+02
          4.212765957447e+02 0.000000000000e+00 -3.000000000000e+02
          4.021276595745e+02 0.000000000000e+00 -3.000000000000e+02
          3.829787234043e+02 0.000000000000e+00 -3.000000000000e+02
          3.638297872340e+02 0.000000000000e+00 -3.000000000000e+02
          3.446808510638e+02 0.000000000000e+00 -3.000000000000e+02
          3.255319148936e+02 0.000000000000e+00 -3.000000000000e+02
          3.063829787234e+02 0.000000000000e+00 -3.000000000000e+02
          2.872340425532e+02 0.000000000000e+00 -3.000000000000e+02
          2.680851063830e+02 0.000000000000e+00 -3.000000000000e+02
          2.489361702128e+02 0.000000000000e+00 -3.000000000000e+02
          2.297872340426e+02 0.000000000000e+00 -3.000000000000e+02
          2.106382978723e+02 0.000000000000e+00 -3.000000000000e+02
          1.914893617021e+02 0.000000000000e+00 -3.000000000000e+02
          1.723404255319e+02 0.000000000000e+00 -3.000000000000e+02
          1.531914893617e+02 0.000000000000e+00 -3.000000000000e+02
          1.340425531915e+02 0.000000000000e+00 -3.000000000000e+02
          1.148936170213e+02 0.000000000000e+00 -3.000000000000e+02
          9.574468085106e+01 0.000000000000e+00 -3.000000000000e+02
          7.659574468085e+01 0.000000000000e+00 -3.000000000000e+02
          5.744680851064e+01 0.000000000000e+00 -3.000000000000e+02
          3.829787234043e+01 0.000000000000e+00 -3.000000000000e+02
          1.914893617021e+01 0.000000000000e+00 -3.000000000000e+02
          8.875310861917e+02 0.000000000000e+00 -5.885021893492e+02
          1.244858699708e+01 0.000000000000e+00 -3.126391296399e+02
          8.873857506203e+02 0.000000000000e+00 -3.123845169440e+02
          1.262677308526e+01 0.000000000000e+00 -4.869517013229e+02
          3.123565098502e+02 0.000000000000e+00 -4.842228482756e+02
[...]
      <PointData Scalars="PRESSURE1">
        <DataArray type="Float64" Name="PRESSURE1" format="ascii">
          3.000000000000e+06 9.077391226533e+06 1.511981440710e+07 2.109778401628e+07 2.698234625291e+07 3.274525651704e+07 3.836084334750e+07 4.380985681903e+07 4.908273228657e+07 5.417711371281e+07 5.907500802714e+07 5.915604039608e+07 5.942001581469e+07 5.985795129449e+07 6.048287883049e+07 6.131178879608e+07 6.236348823036e+07 6.366037545719e+07 6.522944866814e+07 6.710284375145e+07 6.931829513979e+07 7.191935433392e+07 7.495400986393e+07 7.847059137673e+07 8.250964743132e+07 8.708456878844e+07 9.214412934144e+07 9.767611514029e+07 9.745775412859e+07 9.724115567217e+07 9.702671747754e+07 9.681505037951e+07 9.660706282879e+07 9.660437382396e+07 9.679442702403e+07 9.698656481324e+07 9.718124351464e+07 9.737791754073e+07 9.757621834314e+07 9.777588305272e+07 9.797671696231e+07 9.817855584132e+07 9.838126181329e+07 9.858471545450e+07 9.878881214929e+07 9.656743625726e+07 9.426393621708e+07 9.192961021099e+07 8.960626837353e+07 8.732425387492e+07 8.511426882945e+07 8.300189202633e+07 8.100643449796e+07 7.914020787472e+07 7.740959188639e+07 7.581659766064e+07 7.435982876235e+07 7.303530169310e+07 7.183719543334e+07 7.075843650688e+07 6.979133138835e+07 6.892808704062e+07 6.816106965182e+07 6.748291613327e+07 6.688670193818e+07 6.636617995527e+07 6.591581155869e+07 6.553057854664e+07 6.520591312042e+07 6.493782072277e+07 6.472304079560e+07 6.455898593530e+07 6.444312203344e+07 6.437327763271e+07 6.435239346545e+07 6.083956068944e+07 5.727795843553e+07 5.366990754253e+07 5.001335395984e+07 4.630749463200e+07 4.255334692141e+07 3.875252886744e+07 3.490713885360e+07 3.101989649004e+07 2.709421678661e+07 2.313417518914e+07 1.914440901926e+07 1.513010090522e+07 1.109715220774e+07 7.051821054741e+06 3.000000000000e+06 3.000000000000e+06 3.000000000000e+06 3.000000000000e+06 3.000000000000e+06 3.000000000000e+06 3.000000000000e+06 3.000000000000e+06 3.000000000000e+06 3.000000000000e+06 3.000000000000e+06 3.000000000000e+06 3.000000000000e+06 3.000000000000e+06 3.000000000000e+06 3.000000000000e+06 3.000000000000e+06 3.000000000000e+06 3.000000000000e+06 3.000000000000e+06 3.000000000000e+06 3.000000000000e+06 3.000000000000e+06 3.000000000000e+06 3.000000000000e+06 3.000000000000e+06 3.000000000000e+06 3.000000000000e+06 3.000000000000e+06 3.000000000000e+06 3.000000000000e+06 3.000000000000e+06 3.000000000000e+06 3.000000000000e+06 3.000000000000e+06 3.000000000000e+06 3.000000000000e+06 3.000000000000e+06 3.000000000000e+06 3.000000000000e+06 3.000000000000e+06 3.000000000000e+06 3.000000000000e+06 3.000000000000e+06 3.000000000000e+06 3.000000000000e+06 3.000000000000e+06 6.205813084641e+07 6.846369892171e+06 5.669885691220e+06 5.593543984367e+07 9.231259737760e+07 5.534712533329e+07 7.620255620443e+06 8.981949583445e+06 5.918345543956e+07 6.154223913025e+07 6.327621795240e+06 8.732256500895e+07 1.154815208984e+07 5.191242928588e+07 9.148015707889e+07 8.764508098558e+07 8.221631386891e+07 8.244570771371e+07 7.740383855617e+07 7.322733327059e+07 6.968202082482e+07 6.667525897467e+07 6.413181904890e+07 6.201267992816e+07 6.029725743443e+07 5.893459693005e+07 5.783352810825e+07 5.690131108182e+07 5.607557200802e+07 5.539197630564e+07 8.939400908536e+07 8.460227198612e+07 8.556392581743e+07 8.251850410947e+07 5.021212192504e+07 8.189966336566e+06 8.439479597062e+06 8.507487233923e+06 8.566056421077e+06 8.676397566504e+06 8.856661030169e+06 9.113529583725e+06 9.450758594032e+06 9.871278722564e+06 1.037914899681e+07 1.097930315901e+07 1.167159307955e+07 1.243727742215e+07 1.321974284556e+07 1.391125029205e+07 1.436777062758e+07 1.446267789654e+07 1.415448343849e+07 1.351664642135e+07 1.269628484747e+07 1.183657338392e+07 1.102973632140e+07 1.031684849406e+07 9.706742116458e+06 9.192675916545e+06 8.762201141345e+06 8.402035207472e+06 8.100116530241e+06 7.846236098452e+06 7.632027038571e+06 7.450716358750e+06 7.296831663708e+06 7.165942224031e+06 7.054428035493e+06 6.959202155696e+06 6.877318539272e+06 6.805513656264e+06 6.740069488719e+06 6.678022318542e+06 6.620736943258e+06 6.585157814639e+06 6.602840804433e+06 6.646487750495e+06 1.308577656567e+07 1.724222564712e+07 2.125313830401e+07 2.519690999082e+07 2.911108406729e+07 3.300239411591e+07 3.686615643937e+07 4.069193121384e+07 4.446557539929e+07 4.817978768382e+07 5.185981796255e+07 5.558006466624e+07 6.137150110646e+07 6.154981612178e+07 6.174859064538e+07 6.196650857264e+07 6.225047649399e+07 6.262560392940e+07 6.308684475280e+07 6.361870217506e+07 6.421615068174e+07 6.488733758516e+07 6.564549590485e+07 6.650300055573e+07 6.747033276187e+07 6.855702246970e+07 6.977227025511e+07 7.112488303528e+07 7.262282035129e+07 7.427259104337e+07 7.607878329275e+07 7.804401402745e+07 8.016723386855e+07 8.243600393607e+07 8.482130748757e+07 8.729982433127e+07 8.990702391014e+07 9.275555737523e+07 9.577573654151e+07 9.439157477254e+07 9.449667950285e+07 9.446494103743e+07 9.401206448260e+07 9.291541615603e+07 9.154013318971e+07 9.011958992900e+07 8.839573314209e+07 8.378185044147e+07 9.046594778151e+07 9.085753719664e+07 9.105576415352e+07 9.145325764716e+07 8.743760671882e+07 8.470018945166e+07 8.203449488551e+07 8.972250991084e+07 7.945843765785e+07 7.704451283252e+07 7.482159762926e+07 7.278408565468e+07 7.092468314943e+07 6.923842582278e+07 6.771863916906e+07 6.635645561030e+07 6.514181903325e+07 6.406422188424e+07 6.311281512435e+07 6.227542817508e+07 6.153589577363e+07 6.087136237796e+07 6.025824935866e+07 5.969465630425e+07 5.922262157830e+07 5.889849417653e+07 5.871495548876e+07 5.857281604121e+07 5.831231313344e+07 5.781428256078e+07 1.748235011293e+07 2.384871676897e+07 3.000326624437e+07 3.574605073433e+07 4.127112523125e+07 4.674344752986e+07 1.315536595992e+07 1.394075120263e+07 1.401525173872e+07 1.405232180129e+07 1.419397410092e+07 1.447046724756e+07 1.489362266893e+07 1.547483886950e+07 1.622185759762e+07 1.714121751002e+07 1.824342187964e+07 1.953931867488e+07 2.102244835539e+07 2.263328412123e+07 2.421126954440e+07 2.547589107280e+07 2.609957572800e+07 2.586740735621e+07 2.481837186985e+07 2.323528334553e+07 2.146639673343e+07 1.975931768261e+07 1.823189773998e+07 1.691723087178e+07 1.580716129830e+07 1.487745453842e+07 1.410023751156e+07 1.344949389381e+07 1.290296843234e+07 1.244236831101e+07 1.205289062055e+07 1.172258556724e+07 1.144178118690e+07 1.120259245318e+07 1.099839455391e+07 1.082324476944e+07 1.067137687802e+07 1.053656181864e+07 1.041164877883e+07 1.029147374033e+07 1.017629654884e+07 1.013063525187e+07 1.028231186384e+07 7.653851502874e+07 7.612809679610e+07 5.141317972692e+07 5.242156415990e+07 5.331375181785e+07 5.421029437256e+07 5.526412085116e+07 5.667937655752e+07 5.860659079522e+07 6.102949863023e+07 6.392128953224e+07 6.735745459572e+07 7.148753127054e+07 6.959883971459e+07 1.068606695954e+07 1.540657646329e+07 1.410095066382e+07 1.356686132309e+07 1.945858781839e+07 2.335943372185e+07 2.724127469734e+07 1.789818020116e+07 1.680656259989e+07 3.112541176521e+07 2.161784114531e+07 2.540753188118e+07 2.926681672966e+07 2.002871768543e+07 3.500427853715e+07 3.315466828093e+07 3.886297690687e+07 4.267496910486e+07 4.640485954567e+07 5.003952436285e+07 5.368173140476e+07 5.503098753675e+07 5.175782942784e+07 5.554191388148e+07 5.307713056931e+07 4.836280590053e+07 5.035886014083e+07 3.705105119112e+07 4.092861104784e+07 4.472878113407e+07 4.690773808409e+07 1.360241937948e+07 1.650886017301e+07 1.876117598428e+07 1.384306765469e+07 1.401759315118e+07 1.419530740732e+07 1.438303837635e+07 1.459376280817e+07 1.483511007975e+07 1.511440164989e+07 1.544038215290e+07 1.582246864467e+07 1.627113839827e+07 1.679902751119e+07 1.742175746858e+07 1.815865748346e+07 1.903371919086e+07 2.007672075271e+07 2.132408624496e+07 2.281851875668e+07 2.460553807486e+07 2.672397313731e+07 2.918494826340e+07 3.192448523132e+07 3.470171224292e+07 3.699116443083e+07 3.812663870822e+07 3.775692663334e+07 3.608093322747e+07 3.366226642637e+07 3.107843626401e+07 2.867645746583e+07 2.657847544940e+07 2.479377582681e+07 2.329842464708e+07 2.206927726568e+07 2.109532363490e+07 2.036995961267e+07 1.987139303923e+07 1.957658190941e+07 1.950064388938e+07 5.555319054982e+07 5.269350340534e+07 5.551027965509e+07 5.566407396835e+07 5.612716891857e+07 5.677389872935e+07 5.744528631757e+07 5.811472347536e+07 5.882729792255e+07 5.962948297761e+07 6.054773262127e+07 6.159800326878e+07 6.279296007902e+07 6.414466033096e+07 6.566531288216e+07 6.736678750684e+07 6.925860089559e+07 7.134477975668e+07 7.362807540738e+07 7.613643190987e+07 7.891025196862e+07 8.185041701158e+07 8.473604084079e+07 8.754492649728e+07 4.936136756797e+07 1.740402615159e+07 1.893501272515e+07 1.968104856719e+07 2.015620728606e+07 2.738120470749e+07 2.559820700455e+07 2.491039834756e+07 3.330541468613e+07 3.876871600540e+07 4.417467127733e+07 4.648331894122e+07 4.794923829041e+07 4.151593353074e+07 4.363668167459e+07 3.656803712253e+07 3.133754971570e+07 3.944601422209e+07 3.502071891522e+07 3.015032023632e+07 2.481325436763e+07 2.977042415954e+07 2.509221558537e+07 3.010779266203e+07 2.559826754521e+07 2.635910204591e+07 3.067550990737e+07 3.130855001501e+07 4.892555447198e+07 4.485887842150e+07 4.158908402964e+07 3.835117083222e+07 3.429888425764e+07 4.964631558420e+07 5.032099072726e+07 5.117076826830e+07 5.272486459504e+07 5.504234652988e+07 5.777280943054e+07 6.098663418469e+07 6.483806801444e+07 2.745635072604e+07 3.240731773226e+07 2.889414451171e+07 3.066946496586e+07 3.280985360156e+07 3.536784406411e+07 3.840612319071e+07 4.195167917811e+07 4.577898275738e+07 4.913031796549e+07 5.086799920688e+07 5.021124980705e+07 4.731927968232e+07 4.331264780133e+07 3.930408209937e+07 3.575163306062e+07 3.272178114201e+07 3.017952309633e+07 2.806169607079e+07 2.629888718596e+07 2.482721071375e+07 2.359331855558e+07 2.255445084710e+07 2.167657831031e+07 2.093235754105e+07 2.029960497217e+07 1.976054790297e+07 1.930117636422e+07 1.890916152133e+07 1.857101224176e+07 1.827462659847e+07 1.801653481033e+07 1.779126834482e+07 1.755841008095e+07 3.397304644230e+07 4.542908305114e+07 4.168456968787e+07 3.813600466167e+07 3.442126035199e+07 3.598495436380e+07 3.603908605454e+07 3.688660768923e+07 3.856229253806e+07 3.593298296191e+07 3.830074419655e+07 4.114210508834e+07 4.456254669004e+07 4.873038956908e+07 5.391596827275e+07 5.951731920808e+07 6.381237701770e+07 6.465156419769e+07 6.160083395491e+07 5.600287073163e+07 5.017068288976e+07 4.528072082114e+07 4.120987635681e+07 3.782930378951e+07 3.503381350990e+07 3.271971656249e+07 3.079301561385e+07 2.917845015215e+07 2.781838804732e+07 2.666823383629e+07 2.569245736292e+07 2.486199114501e+07 2.415328643192e+07 2.354876168813e+07 2.303563460527e+07 2.259872086692e+07 2.221253134972e+07 2.186247103789e+07 2.157782149893e+07 2.136616786434e+07 4.178388596167e+07 3.834848840293e+07 4.065539375181e+07 2.357680246218e+07 2.740369533988e+07 3.129731456031e+07 3.522404338639e+07 2.153583512941e+07 3.917837269156e+07 4.311662110521e+07 4.553614684466e+07 4.575447597862e+07 4.146470320802e+07 4.098640684087e+07 4.051836701303e+07 4.262325007953e+07 4.595319251053e+07 4.609520884116e+07 4.877526389378e+07 4.490309430801e+07 5.136968588497e+07 4.746714856619e+07 4.315224971070e+07 5.429729228204e+07 5.774859111471e+07 5.046607846298e+07 4.612783801002e+07 6.190851965703e+07 5.404105802772e+07 4.970138524645e+07 5.403955534868e+07 5.834172328594e+07 6.696379111298e+07 6.345240318774e+07 5.954044264938e+07 6.809620872057e+07 7.509598567178e+07 7.969471318978e+07 7.669147934292e+07 7.135592158440e+07 6.172352750918e+07 5.519401517820e+07 4.997906521222e+07 4.568176400005e+07 4.215885163562e+07 3.927168290135e+07 3.687956981246e+07 3.487551769423e+07 3.318463621328e+07 3.175197395685e+07 3.053444354021e+07 2.949647779551e+07 2.860820496171e+07 2.784660287456e+07 2.719924445107e+07 2.666061205692e+07 2.620627227263e+07 2.576136754233e+07 2.532605569126e+07 2.509426056185e+07 6.952689917250e+07 7.231514362068e+07 8.068249464181e+07 7.688318907086e+07 7.664064471781e+07 8.153620891063e+07 7.270759467753e+07 8.033255599776e+07 8.227111869245e+07 8.446389943398e+07 8.718546638442e+07 6.508316700780e+07 7.414286243299e+07 5.888283097412e+07 5.363043597203e+07 4.931898444590e+07 4.585636564614e+07 4.301514203220e+07 4.063232804137e+07 3.861432158257e+07 3.689855347740e+07 3.543619963725e+07 3.418652773958e+07 3.311402847245e+07 3.218806071290e+07 3.138803356350e+07 3.072076963413e+07 3.020881085112e+07 2.979942489739e+07 2.916490273967e+07 2.850064505777e+07 5.224754634611e+07 4.841241782918e+07 5.192087811986e+07 5.222565484920e+07 5.310151234600e+07 5.395043805664e+07 5.465589781574e+07 5.532070408636e+07 5.606429918825e+07 5.692955407581e+07 5.793349956994e+07 5.908920642646e+07 6.040915034521e+07 6.190731315158e+07 6.359920044018e+07 6.550018891813e+07 6.761925892096e+07 6.994558751189e+07 7.246246847990e+07 7.529761594041e+07 7.864560233105e+07 8.202699479060e+07 8.483132575997e+07 8.702543101960e+07 8.798546782381e+07 2.092417139930e+07 2.046377210629e+07 2.523394183237e+07 2.857073469299e+07 8.475817320380e+07 8.386716344523e+07 8.288718369772e+07 7.918825032678e+07 8.047923943805e+07 7.990777854993e+07 4.740399638454e+07 4.905849186597e+07 5.040825680364e+07 5.126568543676e+07 5.179797787828e+07 5.243139495339e+07 5.322031613643e+07 5.415795243095e+07 5.525577206603e+07 5.652301189414e+07 5.797376932962e+07 5.962683405024e+07 6.150478637196e+07 6.363177666350e+07 6.601732853377e+07 6.858790173403e+07 7.117930760129e+07 7.446364395709e+07 7.656920194331e+07 6.773543930803e+07 7.636376909965e+07 4.144191013530e+07 4.398687126770e+07 3.734892660952e+07 3.335727297431e+07 2.941187991802e+07 2.548439357782e+07 2.351541082065e+07 2.746916329305e+07 2.970460144711e+07 3.147649090000e+07 3.541272734702e+07 3.352083467973e+07 3.196516952544e+07 3.094318999116e+07 3.192616294867e+07 3.951382815150e+07 3.728247663993e+07 3.530151525443e+07 3.376948456584e+07 3.368542534902e+07 3.376478295971e+07 3.410810839511e+07 3.476496575902e+07 3.561189570390e+07 3.656684038987e+07 3.765400222201e+07 3.890834079613e+07 4.036638507769e+07 4.206731082795e+07 4.405547254098e+07 4.638147492215e+07 4.910136855260e+07 5.231746827641e+07 5.633280384417e+07 6.162395726205e+07 4.163190670199e+07 3.831328329989e+07 3.698346196995e+07 4.454028038202e+07 4.037015955189e+07 4.663902480489e+07 4.838961467758e+07 4.835472520614e+07 3.552085459884e+07 3.863202159682e+07 4.213764581909e+07 4.525508137235e+07 3.814600771438e+07 3.748198519114e+07 4.137648704525e+07 3.731950678127e+07 4.059381544391e+07 3.787495356027e+07 4.009131646436e+07 3.888580439228e+07 3.987885729935e+07 4.096594474968e+07 4.220198731427e+07 4.362751696262e+07 4.528118367986e+07 4.720533601278e+07 4.944862221973e+07 5.205663705633e+07 5.501354022827e+07 5.834996769665e+07 6.286004216036e+07 7.007415379492e+07 7.960046469348e+07 7.420912524625e+07 6.788026139887e+07 6.310608232240e+07 6.061130000187e+07 5.765562278715e+07 5.474210125964e+07 5.225339052528e+07 5.012613182155e+07 4.829669646015e+07 4.671696336540e+07 4.534755605702e+07 4.415243695363e+07 4.308942374760e+07 4.207394119943e+07 4.464918022396e+07 4.260626528481e+07 4.872076088487e+07 4.563072752590e+07 4.943278178383e+07 4.629580791232e+07 5.027989803016e+07 4.725107426597e+07 4.837354365279e+07 4.966594189068e+07 5.130552462673e+07 5.250333684510e+07 5.115261516704e+07 5.388347846673e+07 5.546691825564e+07 5.728158749702e+07 5.286342501226e+07 5.484133867872e+07 5.936368149965e+07 6.176466077137e+07 5.714237101757e+07 5.988728967069e+07 6.453569236465e+07 6.737875737354e+07 6.355223638348e+07 6.588118308563e+07 6.898552787749e+07 7.133696884235e+07 6.380020124507e+07 6.833226016623e+07 7.269794617413e+07 7.691167398879e+07 8.098698286153e+07 8.494014489191e+07 8.879350540009e+07 9.257143980619e+07 9.629889301773e+07 1.000000000000e+08 1.000000000000e+08 1.000000000000e+08 1.000000000000e+08 1.000000000000e+08 1.000000000000e+08 1.000000000000e+08 1.000000000000e+08 1.000000000000e+08 1.000000000000e+08 1.000000000000e+08 1.000000000000e+08 1.000000000000e+08 1.000000000000e+08 1.000000000000e+08 1.000000000000e+08 9.971374441046e+07 9.950542589638e+07 9.929985516202e+07 9.909477551392e+07 9.889012921576e+07 9.868598692655e+07 9.848242966972e+07 9.827954943121e+07 9.807745190547e+07 9.787625847225e+07 6.211471343838e+07 9.762305374984e+07 9.944874941888e+07 6.283248223193e+07 9.710344230788e+07 9.898068185609e+07 9.471840225376e+07 6.570359915122e+07 9.918476144810e+07 9.873553845039e+07 9.842100745363e+07 9.797207926438e+07 9.781216690332e+07 9.722644947602e+07 9.670446073647e+07 9.622689947472e+07 9.563508001357e+07 9.461722307237e+07 9.254799023320e+07 9.880402687595e+07 9.808676830830e+07 9.838894871877e+07 9.806144798192e+07 9.783583428413e+07 9.765869836867e+07 9.751616692551e+07 9.739823576465e+07 9.725991936487e+07 9.701380381230e+07 9.666239638419e+07 9.665796507968e+07 6.353710329091e+07 6.416508665885e+07 6.483418368374e+07 6.568300420085e+07 6.677285667918e+07 6.813427301080e+07 6.978567703545e+07 7.173367877378e+07 7.398267543085e+07 7.656258758054e+07 7.953262984965e+07 8.297347229795e+07 8.706491499375e+07 9.053106497956e+07 9.258996023177e+07 8.675389090226e+07 8.959782372511e+07 8.352177656693e+07 8.683158887394e+07 9.365078046323e+07 9.142823533391e+07 8.947727258257e+07 8.071205533259e+07 8.429946850946e+07 8.730356934428e+07 7.825694832035e+07 7.607416277218e+07 7.410349200759e+07 7.238142484241e+07 7.095668830435e+07 6.982960168671e+07 6.898388949289e+07 6.837980382988e+07 8.206306058327e+07 8.532071332957e+07 9.425303717062e+07 9.180942071308e+07 8.983139741473e+07 8.800542545055e+07 9.497881640787e+07 9.591198875235e+07 9.695714214434e+07 9.665676861003e+07 8.010792520936e+07 7.821346148778e+07 7.639240470781e+07 7.489408551552e+07 7.372004642550e+07 7.286630943011e+07 7.232602498363e+07 6.789807154003e+07 7.209253669135e+07 6.704536428388e+07 8.365148560736e+07 8.657412597657e+07 9.362703548224e+07 9.109376612209e+07 8.720598535969e+07 8.321395721637e+07 7.909685145136e+07 7.470035505887e+07 7.010208046066e+07 8.235886079784e+07 8.016967650517e+07 7.857383054165e+07 7.733240240455e+07 7.644609251855e+07 7.591022672359e+07 7.575613330325e+07 9.255840049938e+07 9.371935642816e+07 9.443920113948e+07 9.471198197975e+07 9.489759318446e+07 9.513055553194e+07 9.545610227926e+07 9.584113169837e+07 9.634198124334e+07 9.717607227648e+07 8.965335648364e+07 8.555897474871e+07 8.151888974460e+07 7.727854701161e+07 7.216995731485e+07 7.609492550621e+07 8.008317198422e+07 8.390009313980e+07 8.787750915240e+07 8.972918868788e+07 9.188824831625e+07 9.205667292746e+07 9.222015464467e+07 9.240306363149e+07 9.283925544172e+07 9.342598996512e+07 9.396221215132e+07 9.474929012277e+07 9.222415926219e+07 9.003985588837e+07 8.895752104309e+07 9.356135762885e+07 9.114809220586e+07 9.499768862070e+07 9.225529032741e+07 8.996887675824e+07 8.795940959562e+07 8.552167084407e+07 9.194677565212e+07 8.951298493340e+07 8.719287531077e+07 9.157664775739e+07 8.535171164949e+07 8.351228123680e+07 9.090756341678e+07 8.199892667841e+07 8.967274557594e+07 8.065331858393e+07 7.971378244670e+07 7.914981092568e+07 7.894298766962e+07 7.920438951789e+07 8.252232173631e+07 8.584843318201e+07 8.184881952088e+07 8.426824501087e+07 8.677149278956e+07 8.949357036443e+07 8.181575943045e+07 8.208975532435e+07 8.262868514932e+07 8.436389359359e+07 8.450880636402e+07 8.472814704463e+07 8.696665820735e+07 8.709248937007e+07 8.958214672453e+07 8.967224591700e+07 8.710175856816e+07 8.493053399444e+07 8.650784018408e+07 8.830011095302e+07 8.963219371058e+07 8.965598636605e+07 8.756111501828e+07 8.590132065542e+07 8.773265401321e+07 8.537601646838e+07 8.368192952016e+07 1.000000000000e+08 1.000000000000e+08 1.000000000000e+08 1.000000000000e+08 1.000000000000e+08 1.002537352205e+08 1.004444542783e+08 1.006345741946e+08 1.008257146