 TITLE = "Time curves in points"
 VARIABLES = "TIME " "PRESSURE1" "VELOCITY_X1" "VELOCITY_Y1" "VELOCITY_Z1" 
 ZONE T="POINT=POINT18"
0.000000000000e+00 1.235750000000e+06 0.000000000000e+00 0.000000000000e+00 0.000000000000e+00 
1.000000000000e+06 1.611414717756e+06 6.011126171532e-09 4.425941413582e-08 6.373577404101e-08 
2.000000000000e+06 1.642466466774e+06 4.653013931802e-09 3.381191819190e-08 4.854392236178e-08 
3.000000000000e+06 1.650050281197e+06 4.268578988819e-09 3.118003751686e-08 4.452487296047e-08 
4.000000000000e+06 1.652199672823e+06 4.155442319456e-09 3.043085824156e-08 4.338164196591e-08 
5.000000000000e+06 1.652829108362e+06 4.121839241718e-09 3.021112208722e-08 4.304699508807e-08 
