 TITLE = "Time curves in points"
 VARIABLES = "TIME" "PRESSURE1" "VELOCITY_X1" "VELOCITY_Y1" "VELOCITY_Z1"
 ZONE T="POINT=POINT18"
0.000000000000e+00 1.235750000000e+06 0.000000000000e+00 0.000000000000e+00 0.000000000000e+00
1.000000000000e+06 1.611414717756e+06 6.011126171536e-09 4.425941413575e-08 6.373577404094e-08
2.000000000000e+06 1.642466466774e+06 4.653013931797e-09 3.381191819198e-08 4.854392236185e-08
3.000000000000e+06 1.650050281197e+06 4.268578988819e-09 3.118003751686e-08 4.452487296047e-08
4.000000000000e+06 1.652199672823e+06 4.155442319451e-09 3.043085824155e-08 4.338164196590e-08
5.000000000000e+06 1.652829108362e+06 4.121839241717e-09 3.021112208721e-08 4.304699508806e-08
