 TITLE = "Time curves in points"
 VARIABLES = "TIME " "TEMPERATURE1" "VELOCITY_X1" "VELOCITY_Y1" "VELOCITY_Z1" 
 ZONE T="POINT=POINT1"
0.000000000000e+00 0.000000000000e+00 0.000000000000e+00 0.000000000000e+00 0.000000000000e+00 
2.000000000000e+06 8.856126693084e-02 6.666666666667e-05 0.000000000000e+00 0.000000000000e+00 
4.000000000000e+06 1.322777232893e-01 6.666666666667e-05 0.000000000000e+00 0.000000000000e+00 
6.000000000000e+06 1.645377739264e-01 6.666666666667e-05 0.000000000000e+00 0.000000000000e+00 
8.000000000000e+06 1.910027797690e-01 6.666666666667e-05 0.000000000000e+00 0.000000000000e+00 
1.000000000000e+07 2.138025988563e-01 6.666666666667e-05 0.000000000000e+00 0.000000000000e+00 
1.200000000000e+07 2.340081119473e-01 6.666666666667e-05 0.000000000000e+00 0.000000000000e+00 
1.400000000000e+07 2.522477801832e-01 6.666666666667e-05 0.000000000000e+00 0.000000000000e+00 
1.600000000000e+07 2.689281476019e-01 6.666666666667e-05 0.000000000000e+00 0.000000000000e+00 
1.800000000000e+07 2.843305025899e-01 6.666666666667e-05 0.000000000000e+00 0.000000000000e+00 
2.000000000000e+07 2.986593152162e-01 6.666666666667e-05 0.000000000000e+00 0.000000000000e+00 
2.200000000000e+07 3.120689397137e-01 6.666666666667e-05 0.000000000000e+00 0.000000000000e+00 
2.400000000000e+07 3.246794311859e-01 6.666666666667e-05 0.000000000000e+00 0.000000000000e+00 
2.600000000000e+07 3.365864554746e-01 6.666666666667e-05 0.000000000000e+00 0.000000000000e+00 
2.800000000000e+07 3.478677850521e-01 6.666666666667e-05 0.000000000000e+00 0.000000000000e+00 
3.000000000000e+07 3.585877183026e-01 6.666666666667e-05 0.000000000000e+00 0.000000000000e+00 
3.200000000000e+07 3.688001811338e-01 6.666666666667e-05 0.000000000000e+00 0.000000000000e+00 
3.400000000000e+07 3.785509622095e-01 6.666666666667e-05 0.000000000000e+00 0.000000000000e+00 
3.600000000000e+07 3.878793609637e-01 6.666666666667e-05 0.000000000000e+00 0.000000000000e+00 
3.800000000000e+07 3.968194270198e-01 6.666666666667e-05 0.000000000000e+00 0.000000000000e+00 
4.000000000000e+07 4.054009087119e-01 6.666666666667e-05 0.000000000000e+00 0.000000000000e+00 
