 TITLE = "Time curves in points"
 VARIABLES = "TIME " "PRESSURE1" "TEMPERATURE1" "VELOCITY_X1" "VELOCITY_Y1" "VELOCITY_Z1" 
 ZONE T="POINT=POINT16"
0.000000000000e+00 1.750000000000e+06 6.000000000000e+01 0.000000000000e+00 0.000000000000e+00 0.000000000000e+00 
1.000000000000e+00 1.750427043648e+06 6.000084640517e+01 -2.597589250024e-03 -2.634474794906e-03 -7.325013728688e-03 
3.710000000000e+00 1.757923063346e+06 6.000084638505e+01 -2.232911283514e-03 -2.389581460342e-03 -6.471604932816e-03 
1.091860000000e+01 1.782388627064e+06 6.000084636870e+01 -1.401168876970e-03 -1.622026876604e-03 -4.232559204784e-03 
2.973304600000e+01 1.817834811466e+06 6.000084631145e+01 -5.816114877341e-04 -7.359609116609e-04 -1.844638273177e-03 
7.789802776000e+01 1.847224777017e+06 6.000084603836e+01 -2.093953704559e-04 -2.821801301803e-04 -6.881945478053e-04 
1.987921319600e+02 1.864707574291e+06 6.000084524376e+01 -1.106249807780e-04 -1.479895899105e-04 -3.620207927851e-04 
4.961916283600e+02 1.874055392546e+06 6.000084331930e+01 -7.360563637072e-05 -9.839117252557e-05 -2.407570841150e-04 
1.212924414660e+03 1.877397673534e+06 6.000083868836e+01 -4.973378492084e-05 -6.720435909563e-05 -1.636980991891e-04 
2.904413790660e+03 1.873466205094e+06 6.000082720567e+01 -3.317688048492e-05 -4.401668745780e-05 -1.080885462046e-04 
6.811754248660e+03 1.858034079202e+06 6.000079862349e+01 -2.142019342295e-05 -2.594948273550e-05 -6.636507065774e-05 
