 TITLE = "Time curves in points"
 VARIABLES = "TIME " "PRESSURE1" "TEMPERATURE1" "VELOCITY_X1" "VELOCITY_Y1" "VELOCITY_Z1" 
 ZONE T="POINT=POINT15"
0.000000000000e+00 1.750000000000e+06 6.000000000000e+01 0.000000000000e+00 0.000000000000e+00 0.000000000000e+00 
1.000000000000e+00 1.745330942232e+06 5.987243367632e+01 -2.761646180581e-03 1.707151071434e-03 -1.930835108013e-02 
3.710000000000e+00 1.745564330029e+06 5.987260352201e+01 -1.692012856938e-03 1.002769598324e-03 -1.165033213925e-02 
1.091860000000e+01 1.750989594659e+06 5.987277693970e+01 -6.447094224102e-04 3.665503995759e-04 -4.374528818809e-03 
2.973304600000e+01 1.761688779560e+06 5.987291929567e+01 -2.013876246304e-04 9.814882838530e-05 -1.298422829155e-03 
7.789802776000e+01 1.775922148448e+06 5.987309986802e+01 -9.753537169348e-05 3.850635375196e-05 -5.912311614506e-04 
1.987921319600e+02 1.788288222975e+06 5.987342609662e+01 -6.611138277541e-05 2.526445569493e-05 -3.972611111331e-04 
4.961916283600e+02 1.795892582243e+06 5.987403403120e+01 -4.647963662519e-05 1.724369490159e-05 -2.771758786404e-04 
1.212924414660e+03 1.798012469526e+06 5.987513121503e+01 -3.211564419646e-05 1.013640290460e-05 -1.841892510490e-04 
2.904413790660e+03 1.793001287068e+06 5.987706311848e+01 -2.113513501883e-05 4.668682269737e-06 -1.129710100513e-04 
6.811754248660e+03 1.776793020007e+06 5.988050345338e+01 -1.231044541184e-05 1.781047379024e-06 -6.197849240003e-05 
