 TITLE = "Time curves in points"
 VARIABLES = "TIME " "PRESSURE1" "TEMPERATURE1" "VELOCITY_X1" "VELOCITY_Y1" "VELOCITY_Z1" 
 ZONE T="POINT=POINT17"
0.000000000000e+00 1.750000000000e+06 6.000000000000e+01 0.000000000000e+00 0.000000000000e+00 0.000000000000e+00 
1.000000000000e+00 1.753836364135e+06 5.999999999698e+01 -3.810118806466e-03 -2.742132142098e-04 -2.055476566100e-02 
3.710000000000e+00 1.769939411256e+06 5.999999999697e+01 -3.047653508745e-03 -6.100743863070e-04 -1.504073480346e-02 
1.091860000000e+01 1.794165085136e+06 5.999999999696e+01 -1.766924166215e-03 -7.415443855932e-04 -7.435543991941e-03 
2.973304600000e+01 1.814117786308e+06 5.999999999695e+01 -7.380407669873e-04 -4.803771722628e-04 -2.565876783472e-03 
7.789802776000e+01 1.828151585327e+06 5.999999999694e+01 -2.864983999737e-04 -2.034546954307e-04 -9.580369500068e-04 
1.987921319600e+02 1.839158168857e+06 5.999999999692e+01 -1.466911655243e-04 -8.742434262967e-05 -5.521029463546e-04 
4.961916283600e+02 1.846370810861e+06 5.999999999690e+01 -9.059239476960e-05 -4.869067979711e-05 -3.658222568789e-04 
1.212924414660e+03 1.848459941482e+06 5.999999999688e+01 -5.513520452436e-05 -2.799794726186e-05 -2.369226241750e-04 
2.904413790660e+03 1.843365336298e+06 5.999999999685e+01 -2.888206576648e-05 -9.405695895627e-06 -1.455222054316e-04 
6.811754248660e+03 1.826854453933e+06 5.999999999687e+01 -9.746435131229e-06 9.454894773579e-06 -8.210911833516e-05 
