 TITLE = "Profiles along polylines"
 VARIABLES = "DIST" "TEMPERATURE1" "VELOCITY_X1" "VELOCITY_Y1" "VELOCITY_Z1" 
 ZONE T="TIME=0.000000000000e+00"
0.000000000000e+00 1.000000000000e+00 0.000000000000e+00 0.000000000000e+00 0.000000000000e+00 
2.000000000000e+00 0.000000000000e+00 0.000000000000e+00 0.000000000000e+00 0.000000000000e+00 
4.000000000000e+00 0.000000000000e+00 0.000000000000e+00 0.000000000000e+00 0.000000000000e+00 
6.000000000000e+00 0.000000000000e+00 0.000000000000e+00 0.000000000000e+00 0.000000000000e+00 
8.000000000000e+00 0.000000000000e+00 0.000000000000e+00 0.000000000000e+00 0.000000000000e+00 
1.000000000000e+01 0.000000000000e+00 0.000000000000e+00 0.000000000000e+00 0.000000000000e+00 
1.200000000000e+01 0.000000000000e+00 0.000000000000e+00 0.000000000000e+00 0.000000000000e+00 
1.400000000000e+01 0.000000000000e+00 0.000000000000e+00 0.000000000000e+00 0.000000000000e+00 
1.600000000000e+01 0.000000000000e+00 0.000000000000e+00 0.000000000000e+00 0.000000000000e+00 
1.800000000000e+01 0.000000000000e+00 0.000000000000e+00 0.000000000000e+00 0.000000000000e+00 
2.000000000000e+01 0.000000000000e+00 0.000000000000e+00 0.000000000000e+00 0.000000000000e+00 
2.200000000000e+01 0.000000000000e+00 0.000000000000e+00 0.000000000000e+00 0.000000000000e+00 
2.400000000000e+01 0.000000000000e+00 0.000000000000e+00 0.000000000000e+00 0.000000000000e+00 
2.600000000000e+01 0.000000000000e+00 0.000000000000e+00 0.000000000000e+00 0.000000000000e+00 
2.800000000000e+01 0.000000000000e+00 0.000000000000e+00 0.000000000000e+00 0.000000000000e+00 
3.000000000000e+01 0.000000000000e+00 0.000000000000e+00 0.000000000000e+00 0.000000000000e+00 
3.200000000000e+01 0.000000000000e+00 0.000000000000e+00 0.000000000000e+00 0.000000000000e+00 
3.400000000000e+01 0.000000000000e+00 0.000000000000e+00 0.000000000000e+00 0.000000000000e+00 
3.600000000000e+01 0.000000000000e+00 0.000000000000e+00 0.000000000000e+00 0.000000000000e+00 
3.800000000000e+01 0.000000000000e+00 0.000000000000e+00 0.000000000000e+00 0.000000000000e+00 
4.000000000000e+01 0.000000000000e+00 0.000000000000e+00 0.000000000000e+00 0.000000000000e+00 
4.200000000000e+01 0.000000000000e+00 0.000000000000e+00 0.000000000000e+00 0.000000000000e+00 
4.400000000000e+01 0.000000000000e+00 0.000000000000e+00 0.000000000000e+00 0.000000000000e+00 
4.600000000000e+01 0.000000000000e+00 0.000000000000e+00 0.000000000000e+00 0.000000000000e+00 
4.800000000000e+01 0.000000000000e+00 0.000000000000e+00 0.000000000000e+00 0.000000000000e+00 
5.000000000000e+01 0.000000000000e+00 0.000000000000e+00 0.000000000000e+00 0.000000000000e+00 
 ZONE T="TIME=2.000000000000e+06"
0.000000000000e+00 1.000000000000e+00 5.000000000000e-05 0.000000000000e+00 0.000000000000e+00 
2.000000000000e+00 8.856126693084e-02 6.666666666667e-05 0.000000000000e+00 0.000000000000e+00 
4.000000000000e+00 7.816954340369e-03 6.666666666667e-05 0.000000000000e+00 0.000000000000e+00 
6.000000000000e+00 6.899717821616e-04 6.666666666667e-05 0.000000000000e+00 0.000000000000e+00 
8.000000000000e+00 6.090109259320e-05 6.666666666667e-05 0.000000000000e+00 0.000000000000e+00 
1.000000000000e+01 5.375499862684e-06 6.666666666667e-05 0.000000000000e+00 0.000000000000e+00 
1.200000000000e+01 4.744742231370e-07 6.666666666667e-05 0.000000000000e+00 0.000000000000e+00 
1.400000000000e+01 4.188025137321e-08 6.666666666667e-05 0.000000000000e+00 0.000000000000e+00 
1.600000000000e+01 3.696638812299e-09 6.666666666667e-05 0.000000000000e+00 0.000000000000e+00 
1.800000000000e+01 3.267252733027e-10 6.666666666667e-05 0.000000000000e+00 0.000000000000e+00 
2.000000000000e+01 2.885789481190e-11 6.666666666667e-05 0.000000000000e+00 0.000000000000e+00 
2.200000000000e+01 2.019882365000e-12 6.666666666667e-05 0.000000000000e+00 0.000000000000e+00 
2.400000000000e+01 1.104453284000e-13 6.666666666667e-05 0.000000000000e+00 0.000000000000e+00 
2.600000000000e+01 4.950524459060e-15 6.666666666667e-05 0.000000000000e+00 0.000000000000e+00 
2.800000000000e+01 1.901733849342e-16 6.666666666667e-05 0.000000000000e+00 0.000000000000e+00 
3.000000000000e+01 6.471805849119e-18 6.666666666667e-05 0.000000000000e+00 0.000000000000e+00 
3.200000000000e+01 1.998593644644e-19 6.666666666667e-05 0.000000000000e+00 0.000000000000e+00 
3.400000000000e+01 5.700792404015e-21 6.666666666667e-05 0.000000000000e+00 0.000000000000e+00 
3.600000000000e+01 1.522086802943e-22 6.666666666667e-05 0.000000000000e+00 0.000000000000e+00 
3.800000000000e+01 3.843094000195e-24 6.666666666667e-05 0.000000000000e+00 0.000000000000e+00 
4.000000000000e+01 9.250063627310e-26 6.666666666667e-05 0.000000000000e+00 0.000000000000e+00 
4.200000000000e+01 2.136053806481e-27 6.666666666667e-05 0.000000000000e+00 0.000000000000e+00 
4.400000000000e+01 4.757062332563e-29 6.666666666667e-05 0.000000000000e+00 0.000000000000e+00 
4.600000000000e+01 1.026074442011e-30 6.666666666667e-05 0.000000000000e+00 0.000000000000e+00 
4.800000000000e+01 2.150555724388e-32 6.666666666667e-05 0.000000000000e+00 0.000000000000e+00 
5.000000000000e+01 7.458042116480e-34 5.000000000000e-05 0.000000000000e+00 0.000000000000e+00 
 ZONE T="TIME=6.000000000000e+06"
0.000000000000e+00 1.000000000000e+00 5.000000000000e-05 0.000000000000e+00 0.000000000000e+00 
2.000000000000e+00 1.645377739264e-01 6.666666666667e-05 0.000000000000e+00 0.000000000000e+00 
4.000000000000e+00 2.318596095494e-02 6.666666666667e-05 0.000000000000e+00 0.000000000000e+00 
6.000000000000e+00 2.981581397598e-03 6.666666666667e-05 0.000000000000e+00 0.000000000000e+00 
8.000000000000e+00 3.607469929988e-04 6.666666666667e-05 0.000000000000e+00 0.000000000000e+00 
1.000000000000e+01 4.178189595879e-05 6.666666666667e-05 0.000000000000e+00 0.000000000000e+00 
1.200000000000e+01 4.682490999794e-06 6.666666666667e-05 0.000000000000e+00 0.000000000000e+00 
1.400000000000e+01 5.114361631828e-07 6.666666666667e-05 0.000000000000e+00 0.000000000000e+00 
1.600000000000e+01 5.471701127724e-08 6.666666666667e-05 0.000000000000e+00 0.000000000000e+00 
1.800000000000e+01 5.756799533477e-09 6.666666666667e-05 0.000000000000e+00 0.000000000000e+00 
2.000000000000e+01 5.973908129178e-10 6.666666666667e-05 0.000000000000e+00 0.000000000000e+00 
2.200000000000e+01 5.960142181553e-11 6.666666666667e-05 0.000000000000e+00 0.000000000000e+00 
2.400000000000e+01 5.727150859482e-12 6.666666666667e-05 0.000000000000e+00 0.000000000000e+00 
2.600000000000e+01 5.356077685860e-13 6.666666666667e-05 0.000000000000e+00 0.000000000000e+00 
2.800000000000e+01 4.908029324218e-14 6.666666666667e-05 0.000000000000e+00 0.000000000000e+00 
3.000000000000e+01 4.418996417782e-15 6.666666666667e-05 0.000000000000e+00 0.000000000000e+00 
3.200000000000e+01 3.912386044561e-16 6.666666666667e-05 0.000000000000e+00 0.000000000000e+00 
3.400000000000e+01 3.405579888478e-17 6.666666666667e-05 0.000000000000e+00 0.000000000000e+00 
3.600000000000e+01 2.911855327933e-18 6.666666666667e-05 0.000000000000e+00 0.000000000000e+00 
3.800000000000e+01 2.440844011186e-19 6.666666666667e-05 0.000000000000e+00 0.000000000000e+00 
4.000000000000e+01 1.999067453610e-20 6.666666666667e-05 0.000000000000e+00 0.000000000000e+00 
4.200000000000e+01 1.595724163929e-21 6.666666666667e-05 0.000000000000e+00 0.000000000000e+00 
4.400000000000e+01 1.241758157805e-22 6.666666666667e-05 0.000000000000e+00 0.000000000000e+00 
4.600000000000e+01 9.441495969051e-24 6.666666666667e-05 0.000000000000e+00 0.000000000000e+00 
4.800000000000e+01 7.004357850409e-25 6.666666666667e-05 0.000000000000e+00 0.000000000000e+00 
5.000000000000e+01 8.715285399974e-26 5.000000000000e-05 0.000000000000e+00 0.000000000000e+00 
 ZONE T="TIME=1.000000000000e+07"
0.000000000000e+00 1.000000000000e+00 5.000000000000e-05 0.000000000000e+00 0.000000000000e+00 
2.000000000000e+00 2.138025988563e-01 6.666666666667e-05 0.000000000000e+00 0.000000000000e+00 
4.000000000000e+00 3.808785893231e-02 6.666666666667e-05 0.000000000000e+00 0.000000000000e+00 
6.000000000000e+00 6.047602481145e-03 6.666666666667e-05 0.000000000000e+00 0.000000000000e+00 
8.000000000000e+00 8.858815913567e-04 6.666666666667e-05 0.000000000000e+00 0.000000000000e+00 
1.000000000000e+01 1.221939010074e-04 6.666666666667e-05 0.000000000000e+00 0.000000000000e+00 
1.200000000000e+01 1.608356755124e-05 6.666666666667e-05 0.000000000000e+00 0.000000000000e+00 
1.400000000000e+01 2.038793356109e-06 6.666666666667e-05 0.000000000000e+00 0.000000000000e+00 
1.600000000000e+01 2.505633770374e-07 6.666666666667e-05 0.000000000000e+00 0.000000000000e+00 
1.800000000000e+01 3.000712470083e-08 6.666666666667e-05 0.000000000000e+00 0.000000000000e+00 
2.000000000000e+01 3.515789565935e-09 6.666666666667e-05 0.000000000000e+00 0.000000000000e+00 
2.200000000000e+01 4.014308286829e-10 6.666666666667e-05 0.000000000000e+00 0.000000000000e+00 
2.400000000000e+01 4.472299982056e-11 6.666666666667e-05 0.000000000000e+00 0.000000000000e+00 
2.600000000000e+01 4.874389474844e-12 6.666666666667e-05 0.000000000000e+00 0.000000000000e+00 
2.800000000000e+01 5.207449064669e-13 6.666666666667e-05 0.000000000000e+00 0.000000000000e+00 
3.000000000000e+01 5.460757767648e-14 6.666666666667e-05 0.000000000000e+00 0.000000000000e+00 
3.200000000000e+01 5.627195813888e-15 6.666666666667e-05 0.000000000000e+00 0.000000000000e+00 
3.400000000000e+01 5.703519668443e-16 6.666666666667e-05 0.000000000000e+00 0.000000000000e+00 
3.600000000000e+01 5.690003662224e-17 6.666666666667e-05 0.000000000000e+00 0.000000000000e+00 
3.800000000000e+01 5.589825479883e-18 6.666666666667e-05 0.000000000000e+00 0.000000000000e+00 
4.000000000000e+01 5.408428531590e-19 6.666666666667e-05 0.000000000000e+00 0.000000000000e+00 
4.200000000000e+01 5.154480950694e-20 6.666666666667e-05 0.000000000000e+00 0.000000000000e+00 
4.400000000000e+01 4.840131306050e-21 6.666666666667e-05 0.000000000000e+00 0.000000000000e+00 
4.600000000000e+01 4.479985526491e-22 6.666666666667e-05 0.000000000000e+00 0.000000000000e+00 
4.800000000000e+01 4.066188548705e-23 6.666666666667e-05 0.000000000000e+00 0.000000000000e+00 
5.000000000000e+01 6.181115273146e-24 5.000000000000e-05 0.000000000000e+00 0.000000000000e+00 
 ZONE T="TIME=1.200000000000e+07"
0.000000000000e+00 1.000000000000e+00 5.000000000000e-05 0.000000000000e+00 0.000000000000e+00 
2.000000000000e+00 2.340081119473e-01 6.666666666667e-05 0.000000000000e+00 0.000000000000e+00 
4.000000000000e+00 4.536806723835e-02 6.666666666667e-05 0.000000000000e+00 0.000000000000e+00 
6.000000000000e+00 7.793641682439e-03 6.666666666667e-05 0.000000000000e+00 0.000000000000e+00 
8.000000000000e+00 1.228537444062e-03 6.666666666667e-05 0.000000000000e+00 0.000000000000e+00 
1.000000000000e+01 1.814809132008e-04 6.666666666667e-05 0.000000000000e+00 0.000000000000e+00 
1.200000000000e+01 2.547293933926e-05 6.666666666667e-05 0.000000000000e+00 0.000000000000e+00 
1.400000000000e+01 3.430333200793e-06 6.666666666667e-05 0.000000000000e+00 0.000000000000e+00 
1.600000000000e+01 4.463495089513e-07 6.666666666667e-05 0.000000000000e+00 0.000000000000e+00 
1.800000000000e+01 5.642126914269e-08 6.666666666667e-05 0.000000000000e+00 0.000000000000e+00 
2.000000000000e+01 6.958018924788e-09 6.666666666667e-05 0.000000000000e+00 0.000000000000e+00 
2.200000000000e+01 8.365605401629e-10 6.666666666667e-05 0.000000000000e+00 0.000000000000e+00 
2.400000000000e+01 9.822567169345e-11 6.666666666667e-05 0.000000000000e+00 0.000000000000e+00 
2.600000000000e+01 1.128732338466e-11 6.666666666667e-05 0.000000000000e+00 0.000000000000e+00 
2.800000000000e+01 1.271468470776e-12 6.666666666667e-05 0.000000000000e+00 0.000000000000e+00 
3.000000000000e+01 1.405831631837e-13 6.666666666667e-05 0.000000000000e+00 0.000000000000e+00 
3.200000000000e+01 1.527428218933e-14 6.666666666667e-05 0.000000000000e+00 0.000000000000e+00 
3.400000000000e+01 1.632346652970e-15 6.666666666667e-05 0.000000000000e+00 0.000000000000e+00 
3.600000000000e+01 1.717300755427e-16 6.666666666667e-05 0.000000000000e+00 0.000000000000e+00 
3.800000000000e+01 1.779703865093e-17 6.666666666667e-05 0.000000000000e+00 0.000000000000e+00 
4.000000000000e+01 1.817695644069e-18 6.666666666667e-05 0.000000000000e+00 0.000000000000e+00 
4.200000000000e+01 1.830354796422e-19 6.666666666667e-05 0.000000000000e+00 0.000000000000e+00 
4.400000000000e+01 1.817850118306e-20 6.666666666667e-05 0.000000000000e+00 0.000000000000e+00 
4.600000000000e+01 1.781494963144e-21 6.666666666667e-05 0.000000000000e+00 0.000000000000e+00 
4.800000000000e+01 1.712649851208e-22 6.666666666667e-05 0.000000000000e+00 0.000000000000e+00 
5.000000000000e+01 2.747951442154e-23 5.000000000000e-05 0.000000000000e+00 0.000000000000e+00 
