 TITLE = "Time curves in points"
 VARIABLES = "TIME " "PRESSURE1" "TEMPERATURE1" "VELOCITY_X1" 
 ZONE T="POINT=POINT1"
0.000000000000e+00 1.000000000000e+05 0.000000000000e+00 0.000000000000e+00 
1.000000000000e+05 1.000000000000e+05 0.000000000000e+00 9.999999999974e-07 
2.000000000000e+05 1.000000000000e+05 0.000000000000e+00 9.999999999974e-07 
3.000000000000e+05 1.000000000000e+05 0.000000000000e+00 9.999999999974e-07 
4.000000000000e+05 1.000000000000e+05 0.000000000000e+00 9.999999999974e-07 
5.000000000000e+05 1.000000000000e+05 0.000000000000e+00 9.999999999974e-07 
6.000000000000e+05 1.000000000000e+05 0.000000000000e+00 9.999999999974e-07 
7.000000000000e+05 1.000000000000e+05 0.000000000000e+00 9.999999999974e-07 
8.000000000000e+05 1.000000000000e+05 0.000000000000e+00 9.999999999974e-07 
9.000000000000e+05 1.000000000000e+05 0.000000000000e+00 9.999999999974e-07 
1.000000000000e+06 1.000000000000e+05 0.000000000000e+00 9.999999999974e-07 
1.100000000000e+06 1.000000000000e+05 0.000000000000e+00 9.999999999974e-07 
1.200000000000e+06 1.000000000000e+05 0.000000000000e+00 9.999999999974e-07 
1.300000000000e+06 1.000000000000e+05 0.000000000000e+00 9.999999999974e-07 
1.400000000000e+06 1.000000000000e+05 0.000000000000e+00 9.999999999974e-07 
1.500000000000e+06 1.000000000000e+05 0.000000000000e+00 9.999999999974e-07 
1.600000000000e+06 1.000000000000e+05 0.000000000000e+00 9.999999999974e-07 
1.700000000000e+06 1.000000000000e+05 0.000000000000e+00 9.999999999974e-07 
1.800000000000e+06 1.000000000000e+05 0.000000000000e+00 9.999999999974e-07 
1.900000000000e+06 1.000000000000e+05 0.000000000000e+00 9.999999999974e-07 
2.000000000000e+06 1.000000000000e+05 0.000000000000e+00 9.999999999974e-07 
2.100000000000e+06 1.000000000000e+05 0.000000000000e+00 9.999999999974e-07 
2.200000000000e+06 1.000000000000e+05 0.000000000000e+00 9.999999999974e-07 
2.300000000000e+06 1.000000000000e+05 0.000000000000e+00 9.999999999974e-07 
2.400000000000e+06 1.000000000000e+05 0.000000000000e+00 9.999999999974e-07 
2.500000000000e+06 1.000000000000e+05 0.000000000000e+00 9.999999999974e-07 
2.600000000000e+06 1.000000000000e+05 0.000000000000e+00 9.999999999974e-07 
2.700000000000e+06 1.000000000000e+05 0.000000000000e+00 9.999999999974e-07 
2.800000000000e+06 1.000000000000e+05 0.000000000000e+00 9.999999999974e-07 
2.900000000000e+06 1.000000000000e+05 0.000000000000e+00 9.999999999974e-07 
3.000000000000e+06 1.000000000000e+05 0.000000000000e+00 9.999999999974e-07 
3.100000000000e+06 1.000000000000e+05 0.000000000000e+00 9.999999999974e-07 
3.200000000000e+06 1.000000000000e+05 0.000000000000e+00 9.999999999974e-07 
3.300000000000e+06 1.000000000000e+05 0.000000000000e+00 9.999999999974e-07 
3.400000000000e+06 1.000000000000e+05 0.000000000000e+00 9.999999999974e-07 
3.500000000000e+06 1.000000000000e+05 0.000000000000e+00 9.999999999974e-07 
3.600000000000e+06 1.000000000000e+05 0.000000000000e+00 9.999999999974e-07 
3.700000000000e+06 1.000000000000e+05 0.000000000000e+00 9.999999999974e-07 
3.800000000000e+06 1.000000000000e+05 0.000000000000e+00 9.999999999974e-07 
3.900000000000e+06 1.000000000000e+05 3.517747398390e-321 9.999999999974e-07 
4.000000000000e+06 1.000000000000e+05 -3.673476889959e-319 9.999999999974e-07 
4.100000000000e+06 1.000000000000e+05 3.515651571920e-317 9.999999999974e-07 
4.200000000000e+06 1.000000000000e+05 -3.258807736683e-315 9.999999999974e-07 
4.300000000000e+06 1.000000000000e+05 2.928390491582e-313 9.999999999974e-07 
4.400000000000e+06 1.000000000000e+05 -2.552373637408e-311 9.999999999974e-07 
4.500000000000e+06 1.000000000000e+05 2.158817637901e-309 9.999999999974e-07 
4.600000000000e+06 1.000000000000e+05 -1.772738500288e-307 9.999999999974e-07 
4.700000000000e+06 1.000000000000e+05 1.413906552300e-305 9.999999999974e-07 
4.800000000000e+06 1.000000000000e+05 -1.095783375204e-303 9.999999999974e-07 
4.900000000000e+06 1.000000000000e+05 8.255212684798e-302 9.999999999974e-07 
5.000000000000e+06 1.000000000000e+05 -6.047758346484e-300 9.999999999974e-07 
5.100000000000e+06 1.000000000000e+05 4.310008956496e-298 9.999999999974e-07 
5.200000000000e+06 1.000000000000e+05 -2.989006415010e-296 9.999999999974e-07 
5.300000000000e+06 1.000000000000e+05 2.017811448769e-294 9.999999999974e-07 
5.400000000000e+06 1.000000000000e+05 -1.326394327213e-292 9.999999999974e-07 
5.500000000000e+06 1.000000000000e+05 8.492388251730e-291 9.999999999974e-07 
5.600000000000e+06 1.000000000000e+05 -5.297521372783e-289 9.999999999974e-07 
5.700000000000e+06 1.000000000000e+05 3.220445593988e-287 9.999999999974e-07 
5.800000000000e+06 1.000000000000e+05 -1.908396617567e-285 9.999999999974e-07 
5.900000000000e+06 1.000000000000e+05 1.102641668224e-283 9.999999999974e-07 
6.000000000000e+06 1.000000000000e+05 -6.213148997847e-282 9.999999999974e-07 
6.100000000000e+06 1.000000000000e+05 3.415028396225e-280 9.999999999974e-07 
6.200000000000e+06 1.000000000000e+05 -1.831348026006e-278 9.999999999974e-07 
6.300000000000e+06 1.000000000000e+05 9.583535050140e-277 9.999999999974e-07 
6.400000000000e+06 1.000000000000e+05 -4.894842795756e-275 9.999999999974e-07 
6.500000000000e+06 1.000000000000e+05 2.440537925004e-273 9.999999999974e-07 
6.600000000000e+06 1.000000000000e+05 -1.188058194597e-271 9.999999999974e-07 
6.700000000000e+06 1.000000000000e+05 5.647585129188e-270 9.999999999974e-07 
6.800000000000e+06 1.000000000000e+05 -2.621950637178e-268 9.999999999974e-07 
6.900000000000e+06 1.000000000000e+05 1.189002843593e-266 9.999999999974e-07 
7.000000000000e+06 1.000000000000e+05 -5.267375845150e-265 9.999999999974e-07 
7.100000000000e+06 1.000000000000e+05 2.279877933137e-263 9.999999999974e-07 
7.200000000000e+06 1.000000000000e+05 -9.642377840486e-262 9.999999999974e-07 
7.300000000000e+06 1.000000000000e+05 3.985272085370e-260 9.999999999974e-07 
7.400000000000e+06 1.000000000000e+05 -1.609814392034e-258 9.999999999974e-07 
7.500000000000e+06 1.000000000000e+05 6.355900742724e-257 9.999999999974e-07 
7.600000000000e+06 1.000000000000e+05 -2.453003510743e-255 9.999999999974e-07 
7.700000000000e+06 1.000000000000e+05 9.254908946036e-254 9.999999999974e-07 
7.800000000000e+06 1.000000000000e+05 -3.413729526183e-252 9.999999999974e-07 
7.900000000000e+06 1.000000000000e+05 1.231107695695e-250 9.999999999974e-07 
8.000000000000e+06 1.000000000000e+05 -4.341071467756e-249 9.999999999974e-07 
8.100000000000e+06 1.000000000000e+05 1.496761982201e-247 9.999999999974e-07 
8.200000000000e+06 1.000000000000e+05 -5.046397375791e-246 9.999999999974e-07 
8.300000000000e+06 1.000000000000e+05 1.663788199081e-244 9.999999999974e-07 
8.400000000000e+06 1.000000000000e+05 -5.364318391272e-243 9.999999999974e-07 
8.500000000000e+06 1.000000000000e+05 1.691375409655e-241 9.999999999974e-07 
8.600000000000e+06 1.000000000000e+05 -5.215314401115e-240 9.999999999974e-07 
8.700000000000e+06 1.000000000000e+05 1.572675250109e-238 9.999999999974e-07 
8.800000000000e+06 1.000000000000e+05 -4.637839554042e-237 9.999999999974e-07 
8.900000000000e+06 1.000000000000e+05 1.337542167935e-235 9.999999999974e-07 
9.000000000000e+06 1.000000000000e+05 -3.772317483009e-234 9.999999999974e-07 
9.100000000000e+06 1.000000000000e+05 1.040420132056e-232 9.999999999974e-07 
9.200000000000e+06 1.000000000000e+05 -2.806057711334e-231 9.999999999974e-07 
9.300000000000e+06 1.000000000000e+05 7.400415994518e-230 9.999999999974e-07 
9.400000000000e+06 1.000000000000e+05 -1.908395490810e-228 9.999999999974e-07 
9.500000000000e+06 1.000000000000e+05 4.811837894210e-227 9.999999999974e-07 
9.600000000000e+06 1.000000000000e+05 -1.186200544671e-225 9.999999999974e-07 
9.700000000000e+06 1.000000000000e+05 2.858777580078e-224 9.999999999974e-07 
9.800000000000e+06 1.000000000000e+05 -6.735109180781e-223 9.999999999974e-07 
9.900000000000e+06 1.000000000000e+05 1.551007995741e-221 9.999999999974e-07 
1.000000000000e+07 1.000000000000e+05 -3.490982814410e-220 9.999999999974e-07 
1.010000000000e+07 1.000000000000e+05 7.678930212760e-219 9.999999999974e-07 
1.020000000000e+07 1.000000000000e+05 -1.650531661168e-217 9.999999999974e-07 
1.030000000000e+07 1.000000000000e+05 3.466278635273e-216 9.999999999974e-07 
1.040000000000e+07 1.000000000000e+05 -7.111500408287e-215 9.999999999974e-07 
1.050000000000e+07 1.000000000000e+05 1.425128311938e-213 9.999999999974e-07 
1.060000000000e+07 1.000000000000e+05 -2.789159307249e-212 9.999999999974e-07 
1.070000000000e+07 1.000000000000e+05 5.330225013646e-211 9.999999999974e-07 
1.080000000000e+07 1.000000000000e+05 -9.944687800205e-210 9.999999999974e-07 
1.090000000000e+07 1.000000000000e+05 1.811025626219e-208 9.999999999974e-07 
1.100000000000e+07 1.000000000000e+05 -3.218502521672e-207 9.999999999974e-07 
1.110000000000e+07 1.000000000000e+05 5.580588811992e-206 9.999999999974e-07 
1.120000000000e+07 1.000000000000e+05 -9.438366451845e-205 9.999999999974e-07 
1.130000000000e+07 1.000000000000e+05 1.556646895809e-203 9.999999999974e-07 
1.140000000000e+07 1.000000000000e+05 -2.502863483438e-202 9.999999999974e-07 
1.150000000000e+07 1.000000000000e+05 3.921986684896e-201 9.999999999974e-07 
1.160000000000e+07 1.000000000000e+05 -5.987632434734e-200 9.999999999974e-07 
1.170000000000e+07 1.000000000000e+05 8.902901010964e-199 9.999999999974e-07 
1.180000000000e+07 1.000000000000e+05 -1.288756456281e-197 9.999999999974e-07 
1.190000000000e+07 1.000000000000e+05 1.815497250539e-196 9.999999999974e-07 
1.200000000000e+07 1.000000000000e+05 -2.487791779325e-195 9.999999999974e-07 
1.210000000000e+07 1.000000000000e+05 3.314504578691e-194 9.999999999974e-07 
1.220000000000e+07 1.000000000000e+05 -4.291254829582e-193 9.999999999974e-07 
1.230000000000e+07 1.000000000000e+05 5.395931145207e-192 9.999999999974e-07 
1.240000000000e+07 1.000000000000e+05 -6.585643437169e-191 9.999999999974e-07 
1.250000000000e+07 1.000000000000e+05 7.796293370119e-190 9.999999999974e-07 
1.260000000000e+07 1.000000000000e+05 -8.945742622876e-189 9.999999999974e-07 
1.270000000000e+07 1.000000000000e+05 9.941011602498e-188 9.999999999974e-07 
1.280000000000e+07 1.000000000000e+05 -1.068909546553e-186 9.999999999974e-07 
1.290000000000e+07 1.000000000000e+05 1.111000191322e-185 9.999999999974e-07 
1.300000000000e+07 1.000000000000e+05 -1.114975708651e-184 9.999999999974e-07 
1.310000000000e+07 1.000000000000e+05 1.079068568697e-183 9.999999999974e-07 
1.320000000000e+07 1.000000000000e+05 -1.005647698966e-182 9.999999999974e-07 
1.330000000000e+07 1.000000000000e+05 9.010461643198e-182 9.999999999974e-07 
1.340000000000e+07 1.000000000000e+05 -7.746982425692e-181 9.999999999974e-07 
1.350000000000e+07 1.000000000000e+05 6.377375669491e-180 9.999999999974e-07 
1.360000000000e+07 1.000000000000e+05 -5.013414269184e-179 9.999999999974e-07 
1.370000000000e+07 1.000000000000e+05 3.751677651439e-178 9.999999999974e-07 
1.380000000000e+07 1.000000000000e+05 -2.661999723684e-177 9.999999999974e-07 
1.390000000000e+07 1.000000000000e+05 1.781993556950e-176 9.999999999974e-07 
1.400000000000e+07 1.000000000000e+05 -1.118029263203e-175 9.999999999974e-07 
1.410000000000e+07 1.000000000000e+05 6.514621972634e-175 9.999999999974e-07 
1.420000000000e+07 1.000000000000e+05 -3.478417902432e-174 9.999999999974e-07 
1.430000000000e+07 1.000000000000e+05 1.665366094986e-173 9.999999999974e-07 
1.440000000000e+07 1.000000000000e+05 -6.866294072681e-173 9.999999999974e-07 
1.450000000000e+07 1.000000000000e+05 2.213341994984e-172 9.999999999974e-07 
1.460000000000e+07 1.000000000000e+05 -3.668972344795e-172 9.999999999974e-07 
1.470000000000e+07 1.000000000000e+05 -1.593095635349e-171 9.999999999974e-07 
1.480000000000e+07 1.000000000000e+05 1.886729460878e-170 9.999999999974e-07 
1.490000000000e+07 1.000000000000e+05 -1.023017591534e-169 9.999999999974e-07 
1.500000000000e+07 1.000000000000e+05 3.306746656087e-169 9.999999999974e-07 
1.510000000000e+07 1.000000000000e+05 -1.831259749644e-169 9.999999999974e-07 
1.520000000000e+07 1.000000000000e+05 -5.334714938313e-168 9.999999999974e-07 
1.530000000000e+07 1.000000000000e+05 3.678613140037e-167 9.999999999974e-07 
1.540000000000e+07 1.000000000000e+05 -1.160167769963e-166 9.999999999974e-07 
1.550000000000e+07 1.000000000000e+05 -5.128567362757e-167 9.999999999974e-07 
1.560000000000e+07 1.000000000000e+05 2.572622538100e-165 9.999999999974e-07 
1.570000000000e+07 1.000000000000e+05 -1.287815733460e-164 9.999999999974e-07 
1.580000000000e+07 1.000000000000e+05 1.628067817732e-164 9.999999999974e-07 
1.590000000000e+07 1.000000000000e+05 1.722677480400e-163 9.999999999974e-07 
1.600000000000e+07 1.000000000000e+05 -1.149390994309e-162 9.999999999974e-07 
1.610000000000e+07 1.000000000000e+05 1.914205022146e-162 9.999999999974e-07 
1.620000000000e+07 1.000000000000e+05 1.417003954672e-161 9.999999999974e-07 
1.630000000000e+07 1.000000000000e+05 -9.784871845241e-161 9.999999999974e-07 
1.640000000000e+07 1.000000000000e+05 1.178966136534e-160 9.999999999974e-07 
1.650000000000e+07 1.000000000000e+05 1.471415144111e-159 9.999999999974e-07 
1.660000000000e+07 1.000000000000e+05 -7.763527784213e-159 9.999999999974e-07 
1.670000000000e+07 1.000000000000e+05 -1.680536809510e-159 9.999999999974e-07 
1.680000000000e+07 1.000000000000e+05 1.586527611037e-157 9.999999999974e-07 
1.690000000000e+07 1.000000000000e+05 -4.698496480862e-157 9.999999999974e-07 
1.700000000000e+07 1.000000000000e+05 -1.718621413257e-156 9.999999999974e-07 
1.710000000000e+07 1.000000000000e+05 1.412585311052e-155 9.999999999974e-07 
1.720000000000e+07 1.000000000000e+05 -3.720489448113e-156 9.999999999974e-07 
1.730000000000e+07 1.000000000000e+05 -2.692271326156e-154 9.999999999974e-07 
1.740000000000e+07 1.000000000000e+05 7.014905893356e-154 9.999999999974e-07 
1.750000000000e+07 1.000000000000e+05 3.785564620101e-153 9.999999999974e-07 
1.760000000000e+07 1.000000000000e+05 -2.144814088576e-152 9.999999999974e-07 
1.770000000000e+07 1.000000000000e+05 -3.489720910668e-152 9.999999999974e-07 
1.780000000000e+07 1.000000000000e+05 4.822218909866e-151 9.999999999974e-07 
1.790000000000e+07 1.000000000000e+05 -5.576732985088e-152 9.999999999974e-07 
1.800000000000e+07 1.000000000000e+05 -9.433469135753e-150 9.999999999974e-07 
1.810000000000e+07 1.000000000000e+05 1.278919113222e-149 9.999999999974e-07 
1.820000000000e+07 1.000000000000e+05 1.721388741548e-148 9.999999999974e-07 
1.830000000000e+07 1.000000000000e+05 -4.144367139898e-148 9.999999999974e-07 
1.840000000000e+07 1.000000000000e+05 -3.065907702762e-147 9.999999999974e-07 
1.850000000000e+07 1.000000000000e+05 1.017292598734e-146 9.999999999974e-07 
1.860000000000e+07 1.000000000000e+05 5.531411971962e-146 9.999999999974e-07 
1.870000000000e+07 1.000000000000e+05 -2.210048764761e-145 9.999999999974e-07 
1.880000000000e+07 1.000000000000e+05 -1.041185133890e-144 9.999999999974e-07 
1.890000000000e+07 1.000000000000e+05 4.452954548179e-144 9.999999999974e-07 
1.900000000000e+07 1.000000000000e+05 2.075993531046e-143 9.999999999974e-07 
1.910000000000e+07 1.000000000000e+05 -8.405239988477e-143 9.999999999974e-07 
1.920000000000e+07 1.000000000000e+05 -4.363958899221e-142 9.999999999974e-07 
1.930000000000e+07 1.000000000000e+05 1.462058137520e-141 9.999999999974e-07 
1.940000000000e+07 1.000000000000e+05 9.463343218194e-141 9.999999999974e-07 
1.950000000000e+07 1.000000000000e+05 -2.211758413172e-140 9.999999999974e-07 
1.960000000000e+07 1.000000000000e+05 -2.053702148924e-139 9.999999999974e-07 
1.970000000000e+07 1.000000000000e+05 2.377597369910e-139 9.999999999974e-07 
1.980000000000e+07 1.000000000000e+05 4.313818817997e-138 9.999999999974e-07 
1.990000000000e+07 1.000000000000e+05 5.643502822603e-139 9.999999999974e-07 
2.000000000000e+07 1.000000000000e+05 -8.439777257221e-137 9.999999999974e-07 
2.010000000000e+07 1.000000000000e+05 -1.347468226428e-136 9.999999999974e-07 
2.020000000000e+07 1.000000000000e+05 1.452495242568e-135 9.999999999974e-07 
2.030000000000e+07 1.000000000000e+05 5.137448030674e-135 9.999999999974e-07 
2.040000000000e+07 1.000000000000e+05 -1.930533130255e-134 9.999999999974e-07 
2.050000000000e+07 1.000000000000e+05 -1.389186275008e-133 9.999999999974e-07 
2.060000000000e+07 1.000000000000e+05 9.527516760976e-134 9.999999999974e-07 
2.070000000000e+07 1.000000000000e+05 2.950077162335e-132 9.999999999974e-07 
2.080000000000e+07 1.000000000000e+05 4.866786509889e-132 9.999999999974e-07 
2.090000000000e+07 1.000000000000e+05 -4.657251772830e-131 9.999999999974e-07 
2.100000000000e+07 1.000000000000e+05 -2.131175052335e-130 9.999999999974e-07 
2.110000000000e+07 1.000000000000e+05 3.606628168584e-130 9.999999999974e-07 
2.120000000000e+07 1.000000000000e+05 5.194633572690e-129 9.999999999974e-07 
2.130000000000e+07 1.000000000000e+05 7.639750842192e-129 9.999999999974e-07 
2.140000000000e+07 1.000000000000e+05 -8.006213556125e-128 9.999999999974e-07 
2.150000000000e+07 1.000000000000e+05 -3.956033364667e-127 9.999999999974e-07 
2.160000000000e+07 1.000000000000e+05 3.303920974673e-127 9.999999999974e-07 
2.170000000000e+07 1.000000000000e+05 8.893657769534e-126 9.999999999974e-07 
2.180000000000e+07 1.000000000000e+05 2.345307307762e-125 9.999999999974e-07 
2.190000000000e+07 1.000000000000e+05 -9.421627185262e-125 9.999999999974e-07 
2.200000000000e+07 1.000000000000e+05 -8.002004316397e-124 9.999999999974e-07 
2.210000000000e+07 1.000000000000e+05 -1.080811895627e-123 9.999999999974e-07 
2.220000000000e+07 1.000000000000e+05 1.172691211001e-122 9.999999999974e-07 
2.230000000000e+07 1.000000000000e+05 6.680703147253e-122 9.999999999974e-07 
2.240000000000e+07 1.000000000000e+05 3.381649442649e-122 9.999999999974e-07 
2.250000000000e+07 1.000000000000e+05 -1.182297967550e-120 9.999999999974e-07 
2.260000000000e+07 1.000000000000e+05 -5.596351766029e-120 9.999999999974e-07 
2.270000000000e+07 1.000000000000e+05 -5.011818311652e-121 9.999999999974e-07 
2.280000000000e+07 1.000000000000e+05 1.084007194941e-118 9.999999999974e-07 
2.290000000000e+07 1.000000000000e+05 4.926023317258e-118 9.999999999974e-07 
2.300000000000e+07 1.000000000000e+05 9.726181345150e-119 9.999999999974e-07 
2.310000000000e+07 1.000000000000e+05 -9.283764147811e-117 9.999999999974e-07 
2.320000000000e+07 1.000000000000e+05 -4.583553297356e-116 9.999999999974e-07 
2.330000000000e+07 1.000000000000e+05 -3.749039392199e-116 9.999999999974e-07 
2.340000000000e+07 1.000000000000e+05 7.217865127140e-115 9.999999999974e-07 
2.350000000000e+07 1.000000000000e+05 4.350090650176e-114 9.999999999974e-07 
2.360000000000e+07 1.000000000000e+05 7.870042523740e-114 9.999999999974e-07 
2.370000000000e+07 1.000000000000e+05 -4.524497841906e-113 9.999999999974e-07 
2.380000000000e+07 1.000000000000e+05 -3.937118439113e-112 9.999999999974e-07 
2.390000000000e+07 1.000000000000e+05 -1.211902026737e-111 9.999999999974e-07 
2.400000000000e+07 1.000000000000e+05 1.195767045061e-111 9.999999999974e-07 
2.410000000000e+07 1.000000000000e+05 3.055842959232e-110 9.999999999974e-07 
2.420000000000e+07 1.000000000000e+05 1.476203939266e-109 9.999999999974e-07 
2.430000000000e+07 1.000000000000e+05 2.354990950955e-109 9.999999999974e-07 
2.440000000000e+07 1.000000000000e+05 -1.559556966109e-108 9.999999999974e-07 
2.450000000000e+07 1.000000000000e+05 -1.378356438226e-107 9.999999999974e-07 
2.460000000000e+07 1.000000000000e+05 -5.095727893529e-107 9.999999999974e-07 
2.470000000000e+07 1.000000000000e+05 -3.396577536687e-107 9.999999999974e-07 
2.480000000000e+07 1.000000000000e+05 8.005515453458e-106 9.999999999974e-07 
2.490000000000e+07 1.000000000000e+05 5.614498350152e-105 9.999999999974e-07 
2.500000000000e+07 1.000000000000e+05 1.927821291772e-104 9.999999999974e-07 
2.510000000000e+07 1.000000000000e+05 1.103240429395e-104 9.999999999974e-07 
2.520000000000e+07 1.000000000000e+05 -3.105248064908e-103 9.999999999974e-07 
2.530000000000e+07 1.000000000000e+05 -2.232189437491e-102 9.999999999974e-07 
2.540000000000e+07 1.000000000000e+05 -8.506976419842e-102 9.999999999974e-07 
2.550000000000e+07 1.000000000000e+05 -1.232270386129e-101 9.999999999974e-07 
2.560000000000e+07 1.000000000000e+05 8.552388311415e-101 9.999999999974e-07 
2.570000000000e+07 1.000000000000e+05 8.242223972981e-100 9.999999999974e-07 
2.580000000000e+07 1.000000000000e+05 3.963923583120e-99 9.999999999974e-07 
2.590000000000e+07 1.000000000000e+05 1.118726446026e-98 9.999999999974e-07 
2.600000000000e+07 1.000000000000e+05 -7.293776416632e-102 9.999999999974e-07 
2.610000000000e+07 1.000000000000e+05 -2.213398589726e-97 9.999999999974e-07 
2.620000000000e+07 1.000000000000e+05 -1.582837345263e-96 9.999999999974e-07 
2.630000000000e+07 1.000000000000e+05 -7.054381692514e-96 9.999999999974e-07 
2.640000000000e+07 1.000000000000e+05 -2.014020687818e-95 9.999999999974e-07 
2.650000000000e+07 1.000000000000e+05 -8.752714966051e-96 9.999999999974e-07 
2.660000000000e+07 1.000000000000e+05 3.333754867720e-94 9.999999999974e-07 
2.670000000000e+07 1.000000000000e+05 2.674253575667e-93 9.999999999974e-07 
2.680000000000e+07 1.000000000000e+05 1.365080255691e-92 9.999999999974e-07 
2.690000000000e+07 1.000000000000e+05 5.136715694515e-92 9.999999999974e-07 
2.700000000000e+07 1.000000000000e+05 1.257691136766e-91 9.999999999974e-07 
2.710000000000e+07 1.000000000000e+05 -3.869205574833e-92 9.999999999974e-07 
2.720000000000e+07 1.000000000000e+05 -2.791863934855e-90 9.999999999974e-07 
2.730000000000e+07 1.000000000000e+05 -2.130670259219e-89 9.999999999974e-07 
2.740000000000e+07 1.000000000000e+05 -1.146019559513e-88 9.999999999974e-07 
2.750000000000e+07 1.000000000000e+05 -4.993860983615e-88 9.999999999974e-07 
2.760000000000e+07 1.000000000000e+05 -1.777787263860e-87 9.999999999974e-07 
2.770000000000e+07 1.000000000000e+05 -4.633699654682e-87 9.999999999974e-07 
2.780000000000e+07 1.000000000000e+05 -2.948619595632e-87 9.999999999974e-07 
2.790000000000e+07 1.000000000000e+05 6.725127348665e-86 9.999999999974e-07 
2.800000000000e+07 1.000000000000e+05 6.202312527670e-85 9.999999999974e-07 
2.810000000000e+07 1.000000000000e+05 3.889614463970e-84 9.999999999974e-07 
2.820000000000e+07 1.000000000000e+05 2.070474918031e-83 9.999999999974e-07 
2.830000000000e+07 1.000000000000e+05 9.984389540014e-83 9.999999999974e-07 
2.840000000000e+07 1.000000000000e+05 4.489978566102e-82 9.999999999974e-07 
2.850000000000e+07 1.000000000000e+05 1.912983750622e-81 9.999999999974e-07 
2.860000000000e+07 1.000000000000e+05 7.797937648402e-81 9.999999999974e-07 
2.870000000000e+07 1.000000000000e+05 3.061413673105e-80 9.999999999974e-07 
2.880000000000e+07 1.000000000000e+05 1.163053315124e-79 9.999999999974e-07 
2.890000000000e+07 1.000000000000e+05 4.291043107883e-79 9.999999999974e-07 
2.900000000000e+07 1.000000000000e+05 1.541773855740e-78 9.999999999974e-07 
2.910000000000e+07 1.000000000000e+05 5.406837778669e-78 9.999999999974e-07 
2.920000000000e+07 1.000000000000e+05 1.854078793042e-77 9.999999999974e-07 
2.930000000000e+07 1.000000000000e+05 6.226488697931e-77 9.999999999974e-07 
2.940000000000e+07 1.000000000000e+05 2.050487722691e-76 9.999999999974e-07 
2.950000000000e+07 1.000000000000e+05 6.629199648974e-76 9.999999999974e-07 
2.960000000000e+07 1.000000000000e+05 2.106123596684e-75 9.999999999974e-07 
2.970000000000e+07 1.000000000000e+05 6.581181431622e-75 9.999999999974e-07 
2.980000000000e+07 1.000000000000e+05 2.024221348657e-74 9.999999999974e-07 
2.990000000000e+07 1.000000000000e+05 6.132654261452e-74 9.999999999974e-07 
3.000000000000e+07 1.000000000000e+05 1.831252751180e-73 9.999999999974e-07 
3.010000000000e+07 1.000000000000e+05 5.392690699245e-73 9.999999999974e-07 
3.020000000000e+07 1.000000000000e+05 1.566920014145e-72 9.999999999974e-07 
3.030000000000e+07 1.000000000000e+05 4.494489546398e-72 9.999999999974e-07 
3.040000000000e+07 1.000000000000e+05 1.273204316066e-71 9.999999999974e-07 
3.050000000000e+07 1.000000000000e+05 3.563507998035e-71 9.999999999974e-07 
3.060000000000e+07 1.000000000000e+05 9.857900649770e-71 9.999999999974e-07 
3.070000000000e+07 1.000000000000e+05 2.696324629792e-70 9.999999999974e-07 
3.080000000000e+07 1.000000000000e+05 7.294322458847e-70 9.999999999974e-07 
3.090000000000e+07 1.000000000000e+05 1.952350582772e-69 9.999999999974e-07 
3.100000000000e+07 1.000000000000e+05 5.171513633634e-69 9.999999999974e-07 
3.110000000000e+07 1.000000000000e+05 1.356076519416e-68 9.999999999974e-07 
3.120000000000e+07 1.000000000000e+05 3.521035161039e-68 9.999999999974e-07 
3.130000000000e+07 1.000000000000e+05 9.054888354245e-68 9.999999999974e-07 
3.140000000000e+07 1.000000000000e+05 2.306873578799e-67 9.999999999974e-07 
3.150000000000e+07 1.000000000000e+05 5.823562567141e-67 9.999999999974e-07 
3.160000000000e+07 1.000000000000e+05 1.457033611967e-66 9.999999999974e-07 
3.170000000000e+07 1.000000000000e+05 3.613712260167e-66 9.999999999974e-07 
3.180000000000e+07 1.000000000000e+05 8.886362954601e-66 9.999999999974e-07 
3.190000000000e+07 1.000000000000e+05 2.167008469684e-65 9.999999999974e-07 
3.200000000000e+07 1.000000000000e+05 5.241304781492e-65 9.999999999974e-07 
3.210000000000e+07 1.000000000000e+05 1.257573633244e-64 9.999999999974e-07 
3.220000000000e+07 1.000000000000e+05 2.993729818241e-64 9.999999999974e-07 
3.230000000000e+07 1.000000000000e+05 7.072030551405e-64 9.999999999974e-07 
3.240000000000e+07 1.000000000000e+05 1.658030654505e-63 9.999999999974e-07 
3.250000000000e+07 1.000000000000e+05 3.858513179832e-63 9.999999999974e-07 
3.260000000000e+07 1.000000000000e+05 8.914278965662e-63 9.999999999974e-07 
3.270000000000e+07 1.000000000000e+05 2.044790786496e-62 9.999999999974e-07 
3.280000000000e+07 1.000000000000e+05 4.657614543487e-62 9.999999999974e-07 
3.290000000000e+07 1.000000000000e+05 1.053619656316e-61 9.999999999974e-07 
3.300000000000e+07 1.000000000000e+05 2.367345609119e-61 9.999999999974e-07 
3.310000000000e+07 1.000000000000e+05 5.283808229913e-61 9.999999999974e-07 
3.320000000000e+07 1.000000000000e+05 1.171624579062e-60 9.999999999974e-07 
3.330000000000e+07 1.000000000000e+05 2.581266590195e-60 9.999999999974e-07 
3.340000000000e+07 1.000000000000e+05 5.651004425594e-60 9.999999999974e-07 
3.350000000000e+07 1.000000000000e+05 1.229450017495e-59 9.999999999974e-07 
3.360000000000e+07 1.000000000000e+05 2.658466921631e-59 9.999999999974e-07 
3.370000000000e+07 1.000000000000e+05 5.713842169854e-59 9.999999999974e-07 
3.380000000000e+07 1.000000000000e+05 1.220793048749e-58 9.999999999974e-07 
3.390000000000e+07 1.000000000000e+05 2.593055210351e-58 9.999999999974e-07 
3.400000000000e+07 1.000000000000e+05 5.476150377373e-58 9.999999999974e-07 
3.410000000000e+07 1.000000000000e+05 1.149925693341e-57 9.999999999974e-07 
3.420000000000e+07 1.000000000000e+05 2.401214279570e-57 9.999999999974e-07 
3.430000000000e+07 1.000000000000e+05 4.986476044388e-57 9.999999999974e-07 
3.440000000000e+07 1.000000000000e+05 1.029893376482e-56 9.999999999974e-07 
3.450000000000e+07 1.000000000000e+05 2.115727077143e-56 9.999999999974e-07 
3.460000000000e+07 1.000000000000e+05 4.323427361964e-56 9.999999999974e-07 
3.470000000000e+07 1.000000000000e+05 8.788794483908e-56 9.999999999974e-07 
3.480000000000e+07 1.000000000000e+05 1.777435145801e-55 9.999999999974e-07 
3.490000000000e+07 1.000000000000e+05 3.576444318598e-55 9.999999999974e-07 
3.500000000000e+07 1.000000000000e+05 7.160306882522e-55 9.999999999974e-07 
3.510000000000e+07 1.000000000000e+05 1.426470461845e-54 9.999999999974e-07 
3.520000000000e+07 1.000000000000e+05 2.827956677842e-54 9.999999999974e-07 
3.530000000000e+07 1.000000000000e+05 5.579415936940e-54 9.999999999974e-07 
3.540000000000e+07 1.000000000000e+05 1.095562891409e-53 9.999999999974e-07 
3.550000000000e+07 1.000000000000e+05 2.141136946191e-53 9.999999999974e-07 
3.560000000000e+07 1.000000000000e+05 4.165196757323e-53 9.999999999974e-07 
3.570000000000e+07 1.000000000000e+05 8.065575628052e-53 9.999999999974e-07 
3.580000000000e+07 1.000000000000e+05 1.554777572803e-52 9.999999999974e-07 
3.590000000000e+07 1.000000000000e+05 2.983719412551e-52 9.999999999974e-07 
3.600000000000e+07 1.000000000000e+05 5.700694365703e-52 9.999999999974e-07 
3.610000000000e+07 1.000000000000e+05 1.084427101165e-51 9.999999999974e-07 
3.620000000000e+07 1.000000000000e+05 2.053988853891e-51 9.999999999974e-07 
3.630000000000e+07 1.000000000000e+05 3.873849511286e-51 9.999999999974e-07 
3.640000000000e+07 1.000000000000e+05 7.275380884792e-51 9.999999999974e-07 
3.650000000000e+07 1.000000000000e+05 1.360686267903e-50 9.999999999974e-07 
3.660000000000e+07 1.000000000000e+05 2.534370361794e-50 9.999999999974e-07 
3.670000000000e+07 1.000000000000e+05 4.701236516242e-50 9.999999999974e-07 
3.680000000000e+07 1.000000000000e+05 8.685679431129e-50 9.999999999974e-07 
3.690000000000e+07 1.000000000000e+05 1.598322900180e-49 9.999999999974e-07 
3.700000000000e+07 1.000000000000e+05 2.929633280151e-49 9.999999999974e-07 
3.710000000000e+07 1.000000000000e+05 5.348951203227e-49 9.999999999974e-07 
3.720000000000e+07 1.000000000000e+05 9.728568086302e-49 9.999999999974e-07 
3.730000000000e+07 1.000000000000e+05 1.762674230860e-48 9.999999999974e-07 
3.740000000000e+07 1.000000000000e+05 3.181673707508e-48 9.999999999974e-07 
3.750000000000e+07 1.000000000000e+05 5.721592947892e-48 9.999999999974e-07 
3.760000000000e+07 1.000000000000e+05 1.025115930434e-47 9.999999999974e-07 
3.770000000000e+07 1.000000000000e+05 1.829954883266e-47 9.999999999974e-07 
3.780000000000e+07 1.000000000000e+05 3.254884109947e-47 9.999999999974e-07 
3.790000000000e+07 1.000000000000e+05 5.768654259026e-47 9.999999999974e-07 
3.800000000000e+07 1.000000000000e+05 1.018762918384e-46 9.999999999974e-07 
3.810000000000e+07 1.000000000000e+05 1.792862226816e-46 9.999999999974e-07 
3.820000000000e+07 1.000000000000e+05 3.144207089249e-46 9.999999999974e-07 