 TITLE = "Time curves in points"
 VARIABLES = "TIME " "TEMPERATURE1" "DISPLACEMENT_X1" "DISPLACEMENT_Y1" "STRESS_XX" "STRESS_XY" "STRESS_YY" "STRESS_ZZ" "STRAIN_XX" "STRAIN_XY" "STRAIN_YY" "STRAIN_ZZ" "STRAIN_PLS"  p_(1st_Invariant)  q_(2nd_Invariant)   Effective_Strain
 ZONE T="POINT=POINT6"
0.000000000000e+00 2.981500000000e+02 0.000000000000e+00 0.000000000000e+00 0.000000000000e+00 0.000000000000e+00 0.000000000000e+00 0.000000000000e+00 0.000000000000e+00 0.000000000000e+00 0.000000000000e+00 0.000000000000e+00 0.000000000000e+00 -0.000000000000e+00 0.000000000000e+00  0.000000000000e+00
1.000000000000e-01 3.080000000000e+02 0.000000000000e+00 -3.925343562661e-09 -2.345681347872e+05 3.433431266017e-07 -2.110730679987e+06 -2.110730679988e+06 9.530905729622e-05 3.488366166273e-17 4.577193088222e-17 0.000000000000e+00 0.000000000000e+00 1.485343164921e+06 1.876162545201e+06  9.530905729620e-05
2.000000000000e-01 3.080000000000e+02 0.000000000000e+00 -3.925343310616e-09 -3.225312319468e+05 3.804418547513e-07 -2.143264976195e+06 -2.143264976198e+06 9.249327420794e-05 3.865289244273e-17 1.227742279144e-16 0.000000000000e+00 0.000000000000e+00 1.536353728113e+06 1.820733744250e+06  9.249327420788e-05
3.000000000000e-01 3.080000000000e+02 0.000000000000e+00 -3.925343085519e-09 -3.940010122984e+05 3.837946444418e-07 -2.169699004543e+06 -2.169699004546e+06 9.020545800620e-05 3.899353587528e-17 1.652954839409e-16 0.000000000000e+00 0.000000000000e+00 1.577799673796e+06 1.775697992246e+06  9.020545800612e-05
4.000000000000e-01 3.080000000000e+02 0.000000000000e+00 -3.925342882235e-09 -4.551632242004e+05 4.451242420960e-07 -2.192320644561e+06 -2.192320644565e+06 8.824759695451e-05 4.522462299695e-17 1.931475262151e-16 0.000000000000e+00 0.000000000000e+00 1.613268171109e+06 1.737157420362e+06  8.824759695441e-05
5.000000000000e-01 3.080000000000e+02 0.000000000000e+00 -3.925342697572e-09 -5.093023271191e+05 5.115255113638e-07 -2.212344696325e+06 -2.212344696329e+06 8.651455235587e-05 5.197099195457e-17 2.098509996517e-16 0.000000000000e+00 0.000000000000e+00 1.644663906591e+06 1.703042369208e+06  8.651455235576e-05
6.000000000000e-01 3.080000000000e+02 0.000000000000e+00 -3.925342530636e-09 -5.583276682469e+05 5.764127286531e-07 -2.230477356742e+06 -2.230477356746e+06 8.494520417576e-05 5.856353323116e-17 2.191454386100e-16 0.000000000000e+00 0.000000000000e+00 1.673094127245e+06 1.672149688497e+06  8.494520417565e-05
7.000000000000e-01 3.080000000000e+02 0.000000000000e+00 -3.925342377258e-09 -6.034369684973e+05 6.346733755506e-07 -2.247161618478e+06 -2.247161618483e+06 8.350121221925e-05 6.448281495594e-17 2.201850736483e-16 0.000000000000e+00 0.000000000000e+00 1.699253401819e+06 1.643724649983e+06  8.350121221914e-05
8.000000000000e-01 3.080000000000e+02 0.000000000000e+00 -3.925342235934e-09 -6.454304608133e+05 6.856758612353e-07 -2.262693458102e+06 -2.262693458106e+06 8.215696026249e-05 6.966466750151e-17 2.154383492469e-16 0.000000000000e+00 0.000000000000e+00 1.723605792341e+06 1.617262997291e+06  8.215696026238e-05
9.000000000000e-01 3.080000000000e+02 0.000000000000e+00 -3.925342104856e-09 -6.848711114949e+05 7.283356924206e-07 -2.277281096026e+06 -2.277281096030e+06 8.089442721437e-05 7.399890634993e-17 2.069731902628e-16 0.000000000000e+00 0.000000000000e+00 1.746477767850e+06 1.592409984533e+06  8.089442721427e-05
1.000000000000e+00 3.080000000000e+02 0.000000000000e+00 -3.925341980788e-09 -7.221718129379e+05 7.626544946914e-07 -2.291077245875e+06 -2.291077245879e+06 7.970039599339e-05 7.748569666064e-17 1.961890868935e-16 0.000000000000e+00 0.000000000000e+00 1.768108768230e+06 1.568905432939e+06  7.970039599329e-05
