 TITLE = "Time curves in points"
 VARIABLES = "TIME " "TEMPERATURE1" "DISPLACEMENT_X1" "DISPLACEMENT_Y1" "STRESS_XX" "STRESS_XY" "STRESS_YY" "STRESS_ZZ" "STRAIN_XX" "STRAIN_XY" "STRAIN_YY" "STRAIN_ZZ" "STRAIN_PLS"  p_(1st_Invariant)  q_(2nd_Invariant)   Effective_Strain
 ZONE T="POINT=POINT8"
0.000000000000e+00 2.981500000000e+02 0.000000000000e+00 0.000000000000e+00 0.000000000000e+00 0.000000000000e+00 0.000000000000e+00 0.000000000000e+00 0.000000000000e+00 0.000000000000e+00 0.000000000000e+00 0.000000000000e+00 0.000000000000e+00 -0.000000000000e+00 0.000000000000e+00  0.000000000000e+00
1.000000000000e-01 3.080000000000e+02 0.000000000000e+00 -3.925343925556e-09 -2.345681347854e+05 -1.346589400473e-08 -2.110730679991e+06 -2.110730679989e+06 9.530905729633e-05 -1.368134830881e-18 -9.107037403934e-17 0.000000000000e+00 0.000000000000e+00 1.485343164922e+06 1.876162545204e+06  9.530905729637e-05
2.000000000000e-01 3.080000000000e+02 0.000000000000e+00 -3.925344010298e-09 -3.225312319430e+05 -1.428069675554e-08 -2.143264976200e+06 -2.143264976198e+06 9.249327420815e-05 -1.450918790363e-18 -1.108075917760e-16 0.000000000000e+00 0.000000000000e+00 1.536353728114e+06 1.820733744256e+06  9.249327420820e-05
3.000000000000e-01 3.080000000000e+02 0.000000000000e+00 -3.925344103171e-09 -3.940010122930e+05 -7.434699641224e-08 -2.169699004549e+06 -2.169699004547e+06 9.020545800648e-05 -7.553654835483e-18 -1.202928497746e-16 0.000000000000e+00 0.000000000000e+00 1.577799673796e+06 1.775697992255e+06  9.020545800654e-05
4.000000000000e-01 3.080000000000e+02 0.000000000000e+00 -3.925344190313e-09 -4.551632241940e+05 -3.875818279445e-08 -2.192320644568e+06 -2.192320644565e+06 8.824759695484e-05 -3.937831371916e-18 -1.470773648002e-16 0.000000000000e+00 0.000000000000e+00 1.613268171109e+06 1.737157420372e+06  8.824759695492e-05
5.000000000000e-01 3.080000000000e+02 0.000000000000e+00 -3.925344274364e-09 -5.093023271119e+05 -2.463165978949e-08 -2.212344696333e+06 -2.212344696329e+06 8.651455235624e-05 -2.502576634613e-18 -1.708699879733e-16 0.000000000000e+00 0.000000000000e+00 1.644663906591e+06 1.703042369219e+06  8.651455235633e-05
6.000000000000e-01 3.080000000000e+02 0.000000000000e+00 -3.925344355352e-09 -5.583276682390e+05 -1.001880737115e-08 -2.230477356750e+06 -2.230477356746e+06 8.494520417617e-05 -1.017910828909e-18 -1.928298005390e-16 0.000000000000e+00 0.000000000000e+00 1.673094127245e+06 1.672149688509e+06  8.494520417626e-05
7.000000000000e-01 3.080000000000e+02 0.000000000000e+00 -3.925344432619e-09 -6.034369684890e+05 1.593606014001e-09 -2.247161618487e+06 -2.247161618483e+06 8.350121221968e-05 1.619103710225e-19 -2.153335039917e-16 0.000000000000e+00 0.000000000000e+00 1.699253401820e+06 1.643724649996e+06  8.350121221979e-05
8.000000000000e-01 3.080000000000e+02 0.000000000000e+00 -3.925344503484e-09 -6.454304608047e+05 1.155064797615e-08 -2.262693458111e+06 -2.262693458106e+06 8.215696026293e-05 1.173545834377e-18 -2.358870084939e-16 0.000000000000e+00 0.000000000000e+00 1.723605792341e+06 1.617262997304e+06  8.215696026305e-05
9.000000000000e-01 3.080000000000e+02 0.000000000000e+00 -3.925344570173e-09 -6.848711114861e+05 2.372200557974e-08 -2.277281096035e+06 -2.277281096030e+06 8.089442721483e-05 2.410155766902e-18 -2.561597095575e-16 0.000000000000e+00 0.000000000000e+00 1.746477767850e+06 1.592409984546e+06  8.089442721495e-05
1.000000000000e+00 3.080000000000e+02 0.000000000000e+00 -3.925344631522e-09 -7.221718129289e+05 3.110330800038e-08 -2.291077245884e+06 -2.291077245879e+06 7.970039599385e-05 3.160096092838e-18 -2.766650981689e-16 0.000000000000e+00 0.000000000000e+00 1.768108768231e+06 1.568905432953e+06  7.970039599399e-05
