 TITLE = "Time curves in points"
 VARIABLES = "TIME " "TEMPERATURE1" "DISPLACEMENT_X1" "DISPLACEMENT_Y1" "STRESS_XX" "STRESS_XY" "STRESS_YY" "STRESS_ZZ" "STRAIN_XX" "STRAIN_XY" "STRAIN_YY" "STRAIN_ZZ" "STRAIN_PLS"  p_(1st_Invariant)  q_(2nd_Invariant)   Effective_Strain
 ZONE T="POINT=POINT3"
0.000000000000e+00 2.981500000000e+02 0.000000000000e+00 0.000000000000e+00 0.000000000000e+00 0.000000000000e+00 0.000000000000e+00 0.000000000000e+00 0.000000000000e+00 0.000000000000e+00 0.000000000000e+00 0.000000000000e+00 0.000000000000e+00 -0.000000000000e+00 0.000000000000e+00  0.000000000000e+00
1.000000000000e-01 2.981481874323e+02 5.862679251999e-16 0.000000000000e+00 -2.345499930084e+05 1.781113123534e-06 -8.633658183934e+04 -8.636749006112e+04 -7.527671149720e-06 1.809610933511e-16 1.570137666495e-09 0.000000000000e+00 0.000000000000e+00 1.357513549696e+05 1.481979594755e+05  7.528456341354e-06
2.000000000000e-01 2.981588244057e+02 9.796104226449e-16 0.000000000000e+00 -3.225130901724e+05 1.620601531721e-06 -1.210565574912e+05 -1.210874657173e+05 -1.023242172232e-05 1.646531156229e-16 1.570137886348e-09 0.000000000000e+00 0.000000000000e+00 1.882190377937e+05 2.014410803466e+05  1.023320688160e-05
3.000000000000e-01 2.981408143463e+02 1.366238447222e-15 0.000000000000e+00 -3.939828705257e+05 1.278119547550e-06 -1.437898887050e+05 -1.438207969323e+05 -1.270823333854e-05 1.298569460311e-16 1.570137945053e-09 0.000000000000e+00 0.000000000000e+00 2.271978520543e+05 2.501775291390e+05  1.270901848026e-05
4.000000000000e-01 2.981423762001e+02 1.771687402977e-15 0.000000000000e+00 -4.551450824278e+05 9.980135923932e-07 -1.667324575969e+05 -1.667633658244e+05 -1.464979120345e-05 1.013981809871e-16 1.570137957826e-09 0.000000000000e+00 0.000000000000e+00 2.628803019497e+05 2.883971719594e+05  1.465057633554e-05
5.000000000000e-01 2.981525810825e+02 2.186506134221e-15 0.000000000000e+00 -5.092841853463e+05 8.118478214861e-07 -1.888534030114e+05 -1.888843112387e+05 -1.627631360466e-05 8.248373866299e-17 1.570137949389e-09 0.000000000000e+00 0.000000000000e+00 2.956739665321e+05 3.204153293393e+05  1.627709873043e-05
6.000000000000e-01 2.981603599935e+02 2.601949765063e-15 0.000000000000e+00 -5.583095264737e+05 6.846442271972e-07 -2.085844697912e+05 -2.086153780183e+05 -1.776446274153e-05 6.955985348324e-17 1.570137936471e-09 0.000000000000e+00 0.000000000000e+00 3.251697914278e+05 3.497096035933e+05  1.776524786254e-05
7.000000000000e-01 2.981616063538e+02 3.013567160457e-15 0.000000000000e+00 -6.034188267240e+05 5.998038154453e-07 -2.255248329627e+05 -2.255557411896e+05 -1.919544474515e-05 6.094006764924e-17 1.570137927394e-09 0.000000000000e+00 0.000000000000e+00 3.514998002921e+05 3.778785405959e+05  1.919622986227e-05
8.000000000000e-01 2.981567524496e+02 3.416596943854e-15 0.000000000000e+00 -6.454123190400e+05 5.444484704105e-07 -2.400592950133e+05 -2.400902032401e+05 -2.059036348264e-05 5.531596459370e-17 1.570137921183e-09 0.000000000000e+00 0.000000000000e+00 3.751872724311e+05 4.053375707971e+05  2.059114859649e-05
9.000000000000e-01 2.981481305804e+02 3.808628451117e-15 0.000000000000e+00 -6.848529697217e+05 5.045660495854e-07 -2.528753159607e+05 -2.529062241875e+05 -2.194289467314e-05 5.126391063788e-17 1.570137917926e-09 0.000000000000e+00 0.000000000000e+00 3.968781699566e+05 4.319622004770e+05  2.194367978423e-05
1.000000000000e+00 2.981384398366e+02 4.189229659533e-15 0.000000000000e+00 -7.221536711650e+05 4.778027530349e-07 -2.646802170990e+05 -2.647111253257e+05 -2.323808132864e-05 4.854475970835e-17 1.570137918145e-09 0.000000000000e+00 0.000000000000e+00 4.171816711966e+05 4.574580007358e+05  2.323886643738e-05
