 TITLE = "Time curves in points"
 VARIABLES = "TIME " "TEMPERATURE1" "DISPLACEMENT_X1" "DISPLACEMENT_Y1" "STRESS_XX" "STRESS_XY" "STRESS_YY" "STRESS_ZZ" "STRAIN_XX" "STRAIN_XY" "STRAIN_YY" "STRAIN_ZZ" "STRAIN_PLS"  p_(1st_Invariant)  q_(2nd_Invariant)   Effective_Strain
 ZONE T="POINT=POINT7"
0.000000000000e+00 2.981500000000e+02 0.000000000000e+00 0.000000000000e+00 0.000000000000e+00 0.000000000000e+00 0.000000000000e+00 0.000000000000e+00 0.000000000000e+00 0.000000000000e+00 0.000000000000e+00 0.000000000000e+00 0.000000000000e+00 -0.000000000000e+00 0.000000000000e+00  0.000000000000e+00
1.000000000000e-01 2.981481874324e+02 4.514424680445e-16 -3.925343641518e-09 -2.345681347822e+05 -1.046773667484e-06 -8.638563185331e+04 -8.638563184933e+04 -7.527671148988e-06 -1.063522046164e-16 -2.022857351492e-16 0.000000000000e+00 0.000000000000e+00 1.357797994949e+05 1.481825029308e+05  7.527671148886e-06
2.000000000000e-01 2.981588244057e+02 9.579799201974e-16 -3.925343474369e-09 -3.225312319391e+05 -2.500099654624e-06 -1.211056075033e+05 -1.211056074980e+05 -1.023242172161e-05 -2.540101249098e-16 -2.703210366643e-16 0.000000000000e+00 0.000000000000e+00 1.882474823134e+05 2.014256244385e+05  1.023242172148e-05
3.000000000000e-01 2.981408143462e+02 1.494692717517e-15 -3.925343347587e-09 -3.940010122886e+05 -3.644810349149e-06 -1.438389387140e+05 -1.438389387072e+05 -1.270823333793e-05 -3.703127314736e-16 -3.425298782798e-16 0.000000000000e+00 0.000000000000e+00 2.272262965699e+05 2.501620735780e+05  1.270823333776e-05
4.000000000000e-01 2.981423762001e+02 2.045613955441e-15 -3.925343238156e-09 -4.551632241886e+05 -4.544846326441e-06 -1.667815076032e+05 -1.667815075949e+05 -1.464979120296e-05 -4.617563867664e-16 -4.198543725258e-16 0.000000000000e+00 0.000000000000e+00 2.629087464622e+05 2.883817165896e+05  1.464979120275e-05
5.000000000000e-01 2.981525810825e+02 2.599387449933e-15 -3.925343142576e-09 -5.093023271054e+05 -5.284482305494e-06 -1.889024530156e+05 -1.889024530058e+05 -1.627631360426e-05 -5.369034022382e-16 -4.976404373837e-16 0.000000000000e+00 0.000000000000e+00 2.957024110423e+05 3.203998740948e+05  1.627631360401e-05
6.000000000000e-01 2.981603599934e+02 3.149124710058e-15 -3.925343059608e-09 -5.583276682314e+05 -5.935691931489e-06 -2.086335197938e+05 -2.086335197825e+05 -1.776446274121e-05 -6.030663002392e-16 -5.759421575063e-16 0.000000000000e+00 0.000000000000e+00 3.251982359359e+05 3.496941484433e+05  1.776446274092e-05
7.000000000000e-01 2.981616063537e+02 3.689551494761e-15 -3.925342984621e-09 -6.034369684802e+05 -6.545083117073e-06 -2.255738829641e+05 -2.255738829512e+05 -1.919544474488e-05 -6.649804446946e-16 -6.551819231285e-16 0.000000000000e+00 0.000000000000e+00 3.515282447985e+05 3.778630855226e+05  1.919544474455e-05
8.000000000000e-01 2.981567524495e+02 4.218708561436e-15 -3.925342915937e-09 -6.454304607948e+05 -7.112965680676e-06 -2.401083450137e+05 -2.401083449993e+05 -2.059036348241e-05 -7.226773131566e-16 -7.324431496997e-16 0.000000000000e+00 0.000000000000e+00 3.752157169359e+05 4.053221157882e+05  2.059036348204e-05
9.000000000000e-01 2.981481305802e+02 4.731977567156e-15 -3.925342852746e-09 -6.848711114750e+05 -7.681473248405e-06 -2.529243659605e+05 -2.529243659446e+05 -2.194289467294e-05 -7.804376820379e-16 -8.071284449331e-16 0.000000000000e+00 0.000000000000e+00 3.969066144600e+05 4.319467455225e+05  2.194289467254e-05
1.000000000000e+00 2.981384398365e+02 5.227758109868e-15 -3.925342792129e-09 -7.221718129169e+05 -8.221626314846e-06 -2.647292670982e+05 -2.647292670809e+05 -2.323808132847e-05 -8.353172335883e-16 -8.765760958808e-16 0.000000000000e+00 0.000000000000e+00 4.172101156986e+05 4.574425458273e+05  2.323808132803e-05
