 TITLE = "Time curves in points"
 VARIABLES = "TIME " "TEMPERATURE1" "DISPLACEMENT_X1" "DISPLACEMENT_Y1" "STRESS_XX" "STRESS_XY" "STRESS_YY" "STRESS_ZZ" "STRAIN_XX" "STRAIN_XY" "STRAIN_YY" "STRAIN_ZZ" "STRAIN_PLS"  p_(1st_Invariant)  q_(2nd_Invariant)   Effective_Strain
 ZONE T="POINT=POINT2"
0.000000000000e+00 2.981500000000e+02 0.000000000000e+00 0.000000000000e+00 0.000000000000e+00 0.000000000000e+00 0.000000000000e+00 0.000000000000e+00 0.000000000000e+00 0.000000000000e+00 0.000000000000e+00 0.000000000000e+00 0.000000000000e+00 -0.000000000000e+00 0.000000000000e+00  0.000000000000e+00
1.000000000000e-01 2.981481874325e+02 8.892831424718e-16 0.000000000000e+00 -2.345862765805e+05 1.273576598558e-06 -8.643468185928e+04 -8.640377365384e+04 -7.527671148673e-06 1.293953824135e-16 -1.570136836021e-09 0.000000000000e+00 0.000000000000e+00 1.358082440312e+05 1.481670512418e+05  7.526886203081e-06
2.000000000000e-01 2.981588244058e+02 1.793841818607e-15 0.000000000000e+00 -3.225493737452e+05 1.313977975112e-06 -1.211546575118e+05 -1.211237493120e+05 -1.023242172121e-05 1.335001622714e-16 -1.570136552910e-09 0.000000000000e+00 0.000000000000e+00 1.882759268563e+05 2.014101721120e+05  1.023163674329e-05
3.000000000000e-01 2.981408143465e+02 2.677746912081e-15 0.000000000000e+00 -3.940191541015e+05 1.275351272951e-06 -1.438879887266e+05 -1.438570805318e+05 -1.270823333734e-05 1.295756893318e-16 -1.570136296499e-09 0.000000000000e+00 0.000000000000e+00 2.272547411200e+05 2.501466209044e+05  1.270744834195e-05
4.000000000000e-01 2.981423762003e+02 3.540176482537e-15 0.000000000000e+00 -4.551813660074e+05 1.192368580487e-06 -1.668305576204e+05 -1.667996494298e+05 -1.464979120214e-05 1.211446477775e-16 -1.570136082339e-09 0.000000000000e+00 0.000000000000e+00 2.629371910192e+05 2.883662637246e+05  1.464900619721e-05
5.000000000000e-01 2.981525810828e+02 4.370364325708e-15 0.000000000000e+00 -5.093204689296e+05 1.137130838879e-06 -1.889515030372e+05 -1.889205948503e+05 -1.627631360323e-05 1.155324932301e-16 -1.570135893296e-09 0.000000000000e+00 0.000000000000e+00 2.957308556057e+05 3.203844211040e+05  1.627552859208e-05
6.000000000000e-01 2.981603599938e+02 5.168296406962e-15 0.000000000000e+00 -5.583458100605e+05 1.087761657030e-06 -2.086825698195e+05 -2.086516616359e+05 -1.776446273997e-05 1.105165843542e-16 -1.570135730832e-09 0.000000000000e+00 0.000000000000e+00 3.252266805053e+05 3.496786953572e+05  1.776367772415e-05
7.000000000000e-01 2.981616063541e+02 5.933411665584e-15 0.000000000000e+00 -6.034551103137e+05 1.053570376965e-06 -2.256229329935e+05 -2.255920248126e+05 -1.919544474346e-05 1.070427502997e-16 -1.570135588443e-09 0.000000000000e+00 0.000000000000e+00 3.515566893733e+05 3.778476323588e+05  1.919465972383e-05
8.000000000000e-01 2.981567524500e+02 6.665946477353e-15 0.000000000000e+00 -6.454486026324e+05 1.024337989018e-06 -2.401573950464e+05 -2.401264868680e+05 -2.059036348083e-05 1.040727396843e-16 -1.570135461375e-09 0.000000000000e+00 0.000000000000e+00 3.752441615156e+05 4.053066625590e+05  2.058957845800e-05
9.000000000000e-01 2.981481305807e+02 7.365459806882e-15 0.000000000000e+00 -6.848892533165e+05 1.003606827418e-06 -2.529734159960e+05 -2.529425078200e+05 -2.194289467122e-05 1.019664536657e-16 -1.570135344130e-09 0.000000000000e+00 0.000000000000e+00 3.969350590442e+05 4.319312922379e+05  2.194210964568e-05
1.000000000000e+00 2.981384398370e+02 8.034162956788e-15 0.000000000000e+00 -7.221899547618e+05 9.834036927794e-07 -2.647783171362e+05 -2.647474089622e+05 -2.323808132662e-05 9.991381518639e-17 -1.570135241026e-09 0.000000000000e+00 0.000000000000e+00 4.172385602868e+05 4.574270924958e+05  2.323729629878e-05
