 TITLE = "Profiles along polylines"
 VARIABLES = "DIST" "DISPLACEMENT_X1" "DISPLACEMENT_Y1" "TEMPERATURE1" "STRESS_XX" "STRESS_XY" "STRESS_YY" "STRESS_ZZ" "STRAIN_XX" "STRAIN_XY" "STRAIN_YY" "STRAIN_ZZ"  p_(1st_Invariant)  q_(2nd_Invariant)   Effective_Strain
 ZONE T="TIME=0.000000000000e+00"
0.000000000000e+00 0.000000000000e+00 0.000000000000e+00 2.500000000000e+01 0.000000000000e+00 0.000000000000e+00 0.000000000000e+00 0.000000000000e+00 0.000000000000e+00 0.000000000000e+00 0.000000000000e+00 0.000000000000e+00 -0.000000000000e+00 0.000000000000e+00  0.000000000000e+00
2.706366175423e+00 0.000000000000e+00 0.000000000000e+00 2.500000000000e+01 0.000000000000e+00 0.000000000000e+00 0.000000000000e+00 0.000000000000e+00 0.000000000000e+00 0.000000000000e+00 0.000000000000e+00 0.000000000000e+00 -0.000000000000e+00 0.000000000000e+00  0.000000000000e+00
5.572652989512e+00 0.000000000000e+00 0.000000000000e+00 2.500000000000e+01 0.000000000000e+00 0.000000000000e+00 0.000000000000e+00 0.000000000000e+00 0.000000000000e+00 0.000000000000e+00 0.000000000000e+00 0.000000000000e+00 -0.000000000000e+00 0.000000000000e+00  0.000000000000e+00
8.609324411420e+00 0.000000000000e+00 0.000000000000e+00 2.500000000000e+01 0.000000000000e+00 0.000000000000e+00 0.000000000000e+00 0.000000000000e+00 0.000000000000e+00 0.000000000000e+00 0.000000000000e+00 0.000000000000e+00 -0.000000000000e+00 0.000000000000e+00  0.000000000000e+00
1.182737955688e+01 0.000000000000e+00 0.000000000000e+00 2.500000000000e+01 0.000000000000e+00 0.000000000000e+00 0.000000000000e+00 0.000000000000e+00 0.000000000000e+00 0.000000000000e+00 0.000000000000e+00 0.000000000000e+00 -0.000000000000e+00 0.000000000000e+00  0.000000000000e+00
1.523619499301e+01 0.000000000000e+00 0.000000000000e+00 2.500000000000e+01 0.000000000000e+00 0.000000000000e+00 0.000000000000e+00 0.000000000000e+00 0.000000000000e+00 0.000000000000e+00 0.000000000000e+00 0.000000000000e+00 -0.000000000000e+00 0.000000000000e+00  0.000000000000e+00
1.884768529545e+01 0.000000000000e+00 0.000000000000e+00 2.500000000000e+01 0.000000000000e+00 0.000000000000e+00 0.000000000000e+00 0.000000000000e+00 0.000000000000e+00 0.000000000000e+00 0.000000000000e+00 0.000000000000e+00 -0.000000000000e+00 0.000000000000e+00  0.000000000000e+00
2.267335393406e+01 0.000000000000e+00 0.000000000000e+00 2.500000000000e+01 0.000000000000e+00 0.000000000000e+00 0.000000000000e+00 0.000000000000e+00 0.000000000000e+00 0.000000000000e+00 0.000000000000e+00 0.000000000000e+00 -0.000000000000e+00 0.000000000000e+00  0.000000000000e+00
2.672766545364e+01 0.000000000000e+00 0.000000000000e+00 2.500000000000e+01 0.000000000000e+00 0.000000000000e+00 0.000000000000e+00 0.000000000000e+00 0.000000000000e+00 0.000000000000e+00 0.000000000000e+00 0.000000000000e+00 -0.000000000000e+00 0.000000000000e+00  0.000000000000e+00
3.102247701015e+01 0.000000000000e+00 0.000000000000e+00 2.500000000000e+01 0.000000000000e+00 0.000000000000e+00 0.000000000000e+00 0.000000000000e+00 0.000000000000e+00 0.000000000000e+00 0.000000000000e+00 0.000000000000e+00 -0.000000000000e+00 0.000000000000e+00  0.000000000000e+00
3.557215812203e+01 0.000000000000e+00 0.000000000000e+00 2.500000000000e+01 0.000000000000e+00 0.000000000000e+00 0.000000000000e+00 0.000000000000e+00 0.000000000000e+00 0.000000000000e+00 0.000000000000e+00 0.000000000000e+00 -0.000000000000e+00 0.000000000000e+00  0.000000000000e+00
4.039547527718e+01 0.000000000000e+00 0.000000000000e+00 2.500000000000e+01 0.000000000000e+00 0.000000000000e+00 0.000000000000e+00 0.000000000000e+00 0.000000000000e+00 0.000000000000e+00 0.000000000000e+00 0.000000000000e+00 -0.000000000000e+00 0.000000000000e+00  0.000000000000e+00
4.550000000000e+01 0.000000000000e+00 0.000000000000e+00 2.500000000000e+01 0.000000000000e+00 0.000000000000e+00 0.000000000000e+00 0.000000000000e+00 0.000000000000e+00 0.000000000000e+00 0.000000000000e+00 0.000000000000e+00 -0.000000000000e+00 0.000000000000e+00  0.000000000000e+00
 TITLE = "Profiles along polylines"
 VARIABLES = "DIST" "DISPLACEMENT_X1" "DISPLACEMENT_Y1" "TEMPERATURE1" "STRESS_XX" "STRESS_XY" "STRESS_YY" "STRESS_ZZ" "STRAIN_XX" "STRAIN_XY" "STRAIN_YY" "STRAIN_ZZ"  p_(1st_Invariant)  q_(2nd_Invariant)   Effective_Strain
 ZONE T="TIME=1.000000000000e+00"
0.000000000000e+00 4.228562892055e-10 0.000000000000e+00 2.500001482969e+01 -8.322499267926e-02 3.326121147845e-01 -1.884157975394e+00 -2.905613386892e+00 1.063797784553e-09 3.326121147845e-10 1.633312931956e-10 -3.473964125534e-10 1.624332118322e+00 2.541298086324e+00  1.365089130210e-09
2.706366175423e+00 8.533528559135e-10 0.000000000000e+00 2.500000080708e+01 -7.044410561016e-01 -1.510078013236e-01 1.159866283212e-01 2.626695554197e-01 -2.904936742256e-10 -1.510078013236e-10 1.197201679858e-10 1.930616315351e-10 1.085949574536e-01 9.398777946494e-01  5.216800919673e-10
5.572652989512e+00 4.740104207684e-10 0.000000000000e+00 2.499999944983e+01 -4.549150280152e-02 -1.898049709620e-02 1.589516652439e-01 3.527814237358e-02 -5.441516619059e-11 -1.898049709620e-11 4.780641783215e-11 -1.403034360304e-11 -4.957943493867e-02 1.813524750609e-01  9.504085127052e-11
8.609324411420e+00 3.657145286737e-10 0.000000000000e+00 2.499999991444e+01 -6.343399518393e-02 1.060069420848e-02 6.027361119574e-02 -1.926075019326e-03 -3.346587410777e-11 1.060069420848e-11 2.838792908206e-11 -2.711914025471e-12 1.695486335841e-03 1.086964704823e-01  5.662661731604e-11
1.182737955688e+01 2.808736413407e-10 0.000000000000e+00 2.499999999635e+01 -4.436444492070e-02 1.359748627826e-03 3.145780319244e-02 -6.223831774639e-03 -2.038002611370e-11 1.359748627826e-12 1.753109794287e-11 -1.309719540664e-12 6.376824500968e-03 6.570661607428e-02  3.291655982522e-11
1.523619499301e+01 2.206626267918e-10 0.000000000000e+00 2.500000000302e+01 -3.490382887873e-02 8.451031932034e-06 1.800832025200e-02 -4.404123683027e-03 -1.522926878843e-11 8.451031932034e-15 1.122680577694e-11 2.058380942255e-14 7.099877436584e-03 4.600133484106e-02  2.300067091379e-11
1.884768529545e+01 1.729752373941e-10 0.000000000000e+00 2.499999999932e+01 -2.723027217334e-02 -1.185703904808e-05 1.087082174558e-02 -4.097441602719e-03 -1.159010681428e-11 -1.185703904808e-14 7.460440145182e-12 -2.369152896626e-14 6.818964010162e-03 3.324808986414e-02  1.662405444618e-11
2.267335393406e+01 1.339710649741e-10 0.000000000000e+00 2.500000000003e+01 -2.245244912923e-02 1.042377555004e-05 5.955322103078e-03 -4.164944561696e-03 -9.159271667545e-12 1.042377555004e-14 5.044613948610e-12 -1.551938377721e-14 6.887357195950e-03 2.493847167522e-02  1.246924564069e-11
2.672766545364e+01 1.009400465990e-10 0.000000000000e+00 2.499999999999e+01 -1.894391509730e-02 -3.600582383081e-07 2.421353396453e-03 -4.142660458102e-03 -7.405862026694e-12 -3.600582383081e-16 3.276772220182e-12 -5.234707095830e-15 6.888407386315e-03 1.895571306183e-02  9.477856546304e-12
3.102247701015e+01 7.206549816021e-11 0.000000000000e+00 2.500000000000e+01 -1.658672602379e-02 1.123747270484e-06 4.966585092917e-05 -4.140529150767e-03 -6.225677036877e-12 1.123747270484e-15 2.092518900484e-12 -2.578600364561e-15 6.892529774543e-03 1.498724612696e-02  7.493623253065e-12
3.557215812203e+01 4.614163050982e-11 0.000000000000e+00 2.500000000000e+01 -1.477184286160e-02 -8.298963466873e-07 -1.767808977853e-03 -4.137932795708e-03 -5.318200647959e-12 -8.298963466873e-16 1.183816293917e-12 -1.245615010921e-15 6.892528211722e-03 1.199588328519e-02  5.997941771774e-12
4.039547527718e+01 2.231174051111e-11 0.000000000000e+00 2.500000000000e+01 -1.348181431280e-02 2.723832421343e-07 -3.059344455483e-03 -4.136059066800e-03 -4.673141831423e-12 2.723832421343e-16 5.380930972332e-13 -2.642084254619e-16 6.892405945026e-03 9.927999139908e-03  4.963999586769e-12
4.550000000000e+01 0.000000000000e+00 0.000000000000e+00 2.500000000000e+01 -1.249033060131e-02 2.637367994668e-06 -4.051594780936e-03 -4.136950770373e-03 -4.177252903437e-12 2.637367994668e-15 4.211500674798e-14 -5.629879707547e-16 6.892958717538e-03 8.396384466693e-03  4.198194097285e-12
