 TITLE = "Profiles along polylines"
 VARIABLES = "DIST" "PRESSURE1" "TEMPERATURE1" 
 ZONE T="TIME=0.000000000000e+00"
0.000000000000e+00 1.000000000000e+05 3.000000000000e+02 
2.000000000000e-01 1.000000000000e+05 3.000000000000e+02 
4.000000000000e-01 1.000000000000e+05 3.000000000000e+02 
6.000000000000e-01 1.000000000000e+05 3.000000000000e+02 
8.000000000000e-01 1.000000000000e+05 3.000000000000e+02 
1.000000000000e+00 1.000000000000e+05 3.000000000000e+02 
1.200000000000e+00 1.000000000000e+05 3.000000000000e+02 
1.400000000000e+00 1.000000000000e+05 3.000000000000e+02 
1.600000000000e+00 1.000000000000e+05 3.000000000000e+02 
1.800000000000e+00 1.000000000000e+05 3.000000000000e+02 
2.000000000000e+00 1.000000000000e+05 3.000000000000e+02 
2.200000000000e+00 1.000000000000e+05 3.000000000000e+02 
2.400000000000e+00 1.000000000000e+05 3.000000000000e+02 
2.600000000000e+00 1.000000000000e+05 3.000000000000e+02 
2.800000000000e+00 1.000000000000e+05 3.000000000000e+02 
3.000000000000e+00 1.000000000000e+05 3.000000000000e+02 
3.200000000000e+00 1.000000000000e+05 3.000000000000e+02 
3.400000000000e+00 1.000000000000e+05 3.000000000000e+02 
3.600000000000e+00 1.000000000000e+05 3.000000000000e+02 
3.800000000000e+00 1.000000000000e+05 3.000000000000e+02 
4.000000000000e+00 1.000000000000e+05 3.000000000000e+02 
4.200000000000e+00 1.000000000000e+05 3.000000000000e+02 
4.400000000000e+00 1.000000000000e+05 3.000000000000e+02 
4.600000000000e+00 1.000000000000e+05 3.000000000000e+02 
4.800000000000e+00 1.000000000000e+05 3.000000000000e+02 
5.000000000000e+00 1.000000000000e+05 3.000000000000e+02 
5.200000000000e+00 1.000000000000e+05 3.000000000000e+02 
 TITLE = "Profiles along polylines"
 VARIABLES = "DIST" "PRESSURE1" "TEMPERATURE1" 
 ZONE T="TIME=1.000000000000e+05"
0.000000000000e+00 1.010000000000e+05 4.000000000000e+02 
2.000000000000e-01 1.009615384615e+05 3.673328646162e+02 
4.000000000000e-01 1.009230769231e+05 3.454925581572e+02 
6.000000000000e-01 1.008846153846e+05 3.308065080612e+02 
8.000000000000e-01 1.008461538462e+05 3.208933151003e+02 
1.000000000000e+00 1.008076923077e+05 3.141846498163e+02 
1.200000000000e+00 1.007692307692e+05 3.096367705000e+02 
1.400000000000e+00 1.007307692308e+05 3.065501113991e+02 
1.600000000000e+00 1.006923076923e+05 3.044535301825e+02 
1.800000000000e+00 1.006538461538e+05 3.030286854692e+02 
2.000000000000e+00 1.006153846154e+05 3.020600029918e+02 
2.200000000000e+00 1.005769230769e+05 3.014012801292e+02 
2.400000000000e+00 1.005384615385e+05 3.009532605245e+02 
2.600000000000e+00 1.005000000000e+05 3.006485124823e+02 
2.800000000000e+00 1.004615384615e+05 3.004412032849e+02 
3.000000000000e+00 1.004230769231e+05 3.003001708070e+02 
3.200000000000e+00 1.003846153846e+05 3.002042229719e+02 
3.400000000000e+00 1.003461538462e+05 3.001389458042e+02 
3.600000000000e+00 1.003076923077e+05 3.000945346063e+02 
3.800000000000e+00 1.002692307692e+05 3.000643197879e+02 
4.000000000000e+00 1.002307692308e+05 3.000437648275e+02 
4.200000000000e+00 1.001923076923e+05 3.000297857145e+02 
4.400000000000e+00 1.001538461538e+05 3.000202905404e+02 
4.600000000000e+00 1.001153846154e+05 3.000138730580e+02 
4.800000000000e+00 1.000769230769e+05 3.000096224746e+02 
5.000000000000e+00 1.000384615385e+05 3.000070434360e+02 
5.200000000000e+00 1.000000000000e+05 3.000061351649e+02 
 ZONE T="TIME=2.000000000000e+05"
0.000000000000e+00 1.010000000000e+05 4.000000000000e+02 
2.000000000000e-01 1.009868328466e+05 3.869366721174e+02 
4.000000000000e-01 1.009693109247e+05 3.720995799996e+02 
6.000000000000e-01 1.009470528739e+05 3.579928352359e+02 
8.000000000000e-01 1.009201676087e+05 3.456581221292e+02 
1.000000000000e+00 1.008891647083e+05 3.353813188344e+02 
1.200000000000e+00 1.008547606256e+05 3.270828884326e+02 
1.400000000000e+00 1.008177011527e+05 3.205275351059e+02 
1.600000000000e+00 1.007786523090e+05 3.154330520766e+02 
1.800000000000e+00 1.007381563641e+05 3.115238634264e+02 
2.000000000000e+00 1.006966293884e+05 3.085546836408e+02 
2.200000000000e+00 1.006543783585e+05 3.063184060167e+02 
2.400000000000e+00 1.006116239032e+05 3.046460306405e+02 
2.600000000000e+00 1.005685218176e+05 3.034029263223e+02 
2.800000000000e+00 1.005251808095e+05 3.024837451746e+02 
3.000000000000e+00 1.004816761202e+05 3.018071938438e+02 
3.200000000000e+00 1.004380595419e+05 3.013112389025e+02 
3.400000000000e+00 1.003943665933e+05 3.009489775635e+02 
3.600000000000e+00 1.003506215710e+05 3.006852202234e+02 
3.800000000000e+00 1.003068410669e+05 3.004937397699e+02 
4.000000000000e+00 1.002630363990e+05 3.003551041238e+02 
4.200000000000e+00 1.002192152831e+05 3.002550005084e+02 
4.400000000000e+00 1.001753829815e+05 3.001829718011e+02 
4.600000000000e+00 1.001315430948e+05 3.001315182511e+02 
4.800000000000e+00 1.000876981220e+05 3.000955934088e+02 
5.000000000000e+00 1.000438498925e+05 3.000727122558e+02 
5.200000000000e+00 1.000000000000e+05 3.000643977796e+02 
 ZONE T="TIME=3.000000000000e+05"
0.000000000000e+00 1.010000000000e+05 4.000000000000e+02 
2.000000000000e-01 1.009867487344e+05 3.937282193555e+02 
4.000000000000e-01 1.009717228165e+05 3.851606326276e+02 
6.000000000000e-01 1.009542961691e+05 3.752859006137e+02 
8.000000000000e-01 1.009339547006e+05 3.650319357852e+02 
1.000000000000e+00 1.009103304634e+05 3.550938345334e+02 
1.200000000000e+00 1.008832437351e+05 3.459175044875e+02 
1.400000000000e+00 1.008527183917e+05 3.377417878069e+02 
1.600000000000e+00 1.008189600129e+05 3.306540825857e+02 
1.800000000000e+00 1.007823056394e+05 3.246410311381e+02 
2.000000000000e+00 1.007431631964e+05 3.196284904237e+02 
2.200000000000e+00 1.007019568749e+05 3.155104912838e+02 
2.400000000000e+00 1.006590874238e+05 3.121689047846e+02 
2.600000000000e+00 1.006149089921e+05 3.094859758549e+02 
2.800000000000e+00 1.005697196932e+05 3.073516994138e+02 
3.000000000000e+00 1.005237615327e+05 3.056676371162e+02 
3.200000000000e+00 1.004772256482e+05 3.043483858822e+02 
3.400000000000e+00 1.004302598675e+05 3.033215773256e+02 
3.600000000000e+00 1.003829766869e+05 3.025270246540e+02 
3.800000000000e+00 1.003354606468e+05 3.019154363288e+02 
4.000000000000e+00 1.002877746598e+05 3.014469748302e+02 
4.200000000000e+00 1.002399651932e+05 3.010898483456e+02 
4.400000000000e+00 1.001920663966e+05 3.008190886323e+02 
4.600000000000e+00 1.001441033618e+05 3.006157263709e+02 
4.800000000000e+00 1.000960947921e+05 3.004668488281e+02 
5.000000000000e+00 1.000480555402e+05 3.003678814004e+02 
5.200000000000e+00 1.000000000000e+05 3.003309462870e+02 
 ZONE T="TIME=4.000000000000e+05"
0.000000000000e+00 1.010000000000e+05 4.000000000000e+02 
2.000000000000e-01 1.009858019294e+05 3.968117009512e+02 
4.000000000000e-01 1.009706786998e+05 3.919830809177e+02 
6.000000000000e-01 1.009542260491e+05 3.857306301656e+02 
8.000000000000e-01 1.009360376044e+05 3.784379582890e+02 
1.000000000000e+00 1.009157212140e+05 3.705430842153e+02 
1.200000000000e+00 1.008929215272e+05 3.624579110328e+02 
1.400000000000e+00 1.008673485805e+05 3.545242233623e+02 
1.600000000000e+00 1.008388059016e+05 3.469977540293e+02 
1.800000000000e+00 1.008072101431e+05 3.400499831461e+02 
2.000000000000e+00 1.007725964498e+05 3.337792767843e+02 
2.200000000000e+00 1.007351082088e+05 3.282256498703e+02 
2.400000000000e+00 1.006949743462e+05 3.233857274723e+02 
2.600000000000e+00 1.006524800681e+05 3.192261190565e+02 
2.800000000000e+00 1.006079372294e+05 3.156944727641e+02 
3.000000000000e+00 1.005616589638e+05 3.127280902828e+02 
3.200000000000e+00 1.005139409491e+05 3.102603025631e+02 
3.400000000000e+00 1.004650496658e+05 3.082249451883e+02 
3.600000000000e+00 1.004152167091e+05 3.065593079125e+02 
3.800000000000e+00 1.003646376444e+05 3.052059170771e+02 
4.000000000000e+00 1.003134738629e+05 3.041134775989e+02 
4.200000000000e+00 1.002618561560e+05 3.032372866612e+02 
4.400000000000e+00 1.002098891127e+05 3.025394932404e+02 
4.600000000000e+00 1.001576558979e+05 3.019898701063e+02 
4.800000000000e+00 1.001052235943e+05 3.015687372677e+02 
5.000000000000e+00 1.000526505156e+05 3.012766725865e+02 
5.200000000000e+00 1.000000000000e+05 3.011647125886e+02 
 ZONE T="TIME=5.000000000000e+05"
0.000000000000e+00 1.010000000000e+05 4.000000000000e+02 
2.000000000000e-01 1.009843682733e+05 3.983966536625e+02 
4.000000000000e-01 1.009682089237e+05 3.957617737152e+02 
6.000000000000e-01 1.009512593948e+05 3.920449596413e+02 
8.000000000000e-01 1.009332342268e+05 3.873159518744e+02 
1.000000000000e+00 1.009138332413e+05 3.817383658319e+02 
1.200000000000e+00 1.008927495001e+05 3.755324364967e+02 
1.400000000000e+00 1.008696799139e+05 3.689389573594e+02 
1.600000000000e+00 1.008443396932e+05 3.621908307195e+02 
1.800000000000e+00 1.008164798932e+05 3.554941112464e+02 
2.000000000000e+00 1.007859056765e+05 3.490177805722e+02 
2.200000000000e+00 1.007524920193e+05 3.428903529629e+02 
2.400000000000e+00 1.007161936904e+05 3.372012014626e+02 
2.600000000000e+00 1.006770474362e+05 3.320047454840e+02 
2.800000000000e+00 1.006351660113e+05 3.273260595259e+02 
3.000000000000e+00 1.005907254141e+05 3.231668894563e+02 
3.200000000000e+00 1.005439478530e+05 3.195114266401e+02 
3.400000000000e+00 1.004950833376e+05 3.163314702595e+02 
3.600000000000e+00 1.004443924193e+05 3.135908094520e+02 
3.800000000000e+00 1.003921318127e+05 3.112487972600e+02 
4.000000000000e+00 1.003385437360e+05 3.092631964042e+02 
4.200000000000e+00 1.002838491001e+05 3.075925059636e+02 
4.400000000000e+00 1.002282443133e+05 3.061982616721e+02 
4.600000000000e+00 1.001719016493e+05 3.050486350775e+02 
4.800000000000e+00 1.001149743645e+05 3.041272753401e+02 
5.000000000000e+00 1.000576116504e+05 3.034597031458e+02 
5.200000000000e+00 1.000000000000e+05 3.031964468066e+02 
 ZONE T="TIME=6.000000000000e+05"
0.000000000000e+00 1.010000000000e+05 4.000000000000e+02 
2.000000000000e-01 1.009824164473e+05 3.992399954065e+02 
4.000000000000e-01 1.009645259988e+05 3.978869333795e+02 
6.000000000000e-01 1.009461551684e+05 3.958293615045e+02 
8.000000000000e-01 1.009271045510e+05 3.930110979574e+02 
1.000000000000e+00 1.009071540640e+05 3.894371528633e+02 
1.200000000000e+00 1.008860672003e+05 3.851687735334e+02 
1.400000000000e+00 1.008635951136e+05 3.803112294938e+02 
1.600000000000e+00 1.008394816709e+05 3.749983870497e+02 
1.800000000000e+00 1.008134704014e+05 3.693773531650e+02 
2.000000000000e+00 1.007853137546e+05 3.635952823155e+02 
2.200000000000e+00 1.007547844044e+05 3.577893333611e+02 
2.400000000000e+00 1.007216876557e+05 3.520799476470e+02 
2.600000000000e+00 1.006858734720e+05 3.465671216208e+02 
2.800000000000e+00 1.006472464109e+05 3.413291079796e+02 
3.000000000000e+00 1.006057719132e+05 3.364229170701e+02 
3.200000000000e+00 1.005614779349e+05 3.318860324734e+02 
3.400000000000e+00 1.005144516896e+05 3.277388484844e+02 
3.600000000000e+00 1.004648320812e+05 3.239874497324e+02 
3.800000000000e+00 1.004127990388e+05 3.206264705969e+02 
4.000000000000e+00 1.003585613111e+05 3.176419047157e+02 
4.200000000000e+00 1.003023443619e+05 3.150139472570e+02 
4.400000000000e+00 1.002443800767e+05 3.127204767269e+02 
4.600000000000e+00 1.001849006510e+05 3.107434251179e+02 
4.800000000000e+00 1.001241420523e+05 3.090858827508e+02 
5.000000000000e+00 1.000623730438e+05 3.078274672108e+02 
5.200000000000e+00 1.000000000000e+05 3.073156056559e+02 
 ZONE T="TIME=7.000000000000e+05"
0.000000000000e+00 1.010000000000e+05 4.000000000000e+02 
2.000000000000e-01 1.009798460931e+05 3.996746018941e+02 
4.000000000000e-01 1.009595189103e+05 3.990423819602e+02 
6.000000000000e-01 1.009389057139e+05 3.980065481475e+02 
8.000000000000e-01 1.009178694707e+05 3.964853247917e+02 
1.000000000000e+00 1.008962518294e+05 3.944223960692e+02 
1.200000000000e+00 1.008738760236e+05 3.917931351600e+02 
1.400000000000e+00 1.008505494129e+05 3.886061504611e+02 
1.600000000000e+00 1.008260658154e+05 3.849007322971e+02 
1.800000000000e+00 1.008002080617e+05 3.807413815436e+02 
2.000000000000e+00 1.007727512897e+05 3.762107617239e+02 
2.200000000000e+00 1.007434674298e+05 3.714022689624e+02 
2.400000000000e+00 1.007121311461e+05 3.664131117527e+02 
2.600000000000e+00 1.006785272232e+05 3.613384562650e+02 
2.800000000000e+00 1.006424590668e+05 3.562668972746e+02 
3.000000000000e+00 1.006037576799e+05 3.512772921529e+02 
3.200000000000e+00 1.005622902423e+05 3.464368497366e+02 
3.400000000000e+00 1.005179673238e+05 3.418002866112e+02 
3.600000000000e+00 1.004707478482e+05 3.374098357621e+02 
3.800000000000e+00 1.004206411873e+05 3.332959071753e+02 
4.000000000000e+00 1.003677061904e+05 3.294782674981e+02 
4.200000000000e+00 1.003120475372e+05 3.259678052014e+02 
4.400000000000e+00 1.002538107399e+05 3.227696109988e+02 
4.600000000000e+00 1.001931793616e+05 3.198905640020e+02 
4.800000000000e+00 1.001303851534e+05 3.173643173976e+02 
5.000000000000e+00 1.000657667959e+05 3.153462771469e+02 
5.200000000000e+00 1.000000000000e+05 3.144966887037e+02 
 ZONE T="TIME=8.000000000000e+05"
0.000000000000e+00 1.010000000000e+05 4.000000000000e+02 
2.000000000000e-01 1.009766273504e+05 3.998785463057e+02 
4.000000000000e-01 1.009531642138e+05 3.996182240087e+02 
6.000000000000e-01 1.009295417851e+05 3.991568006405e+02 
8.000000000000e-01 1.009056709508e+05 3.984296003324e+02 
1.000000000000e+00 1.008814430699e+05 3.973759570566e+02 
1.200000000000e+00 1.008567314276e+05 3.959453566188e+02 
1.400000000000e+00 1.008313929194e+05 3.941023286109e+02 
1.600000000000e+00 1.008052696807e+05 3.918295079019e+02 
1.800000000000e+00 1.007781905843e+05 3.891286868324e+02 
2.000000000000e+00 1.007499726963e+05 3.860200204879e+02 
2.200000000000e+00 1.007204229038e+05 3.825397737932e+02 
2.400000000000e+00 1.006893399803e+05 3.787371015046e+02 
2.600000000000e+00 1.006565173482e+05 3.746703515218e+02 
2.800000000000e+00 1.006217467403e+05 3.704033127065e+02 
3.000000000000e+00 1.005848228487e+05 3.660017252701e+02 
3.200000000000e+00 1.005455489128e+05 3.615302623135e+02 
3.400000000000e+00 1.005037430298e+05 3.570500933663e+02 
3.600000000000e+00 1.004592448201e+05 3.526170649302e+02 
3.800000000000e+00 1.004119219628e+05 3.482804864048e+02 
4.000000000000e+00 1.003616760894e+05 3.440825103836e+02 
4.200000000000e+00 1.003084477012e+05 3.400582223262e+02 
4.400000000000e+00 1.002522205050e+05 3.362371605127e+02 
4.600000000000e+00 1.001930282862e+05 3.326497406339e+02 
4.800000000000e+00 1.001309781601e+05 3.293552260680e+02 
5.000000000000e+00 1.000663483049e+05 3.265744646611e+02 
5.200000000000e+00 1.000000000000e+05 3.253587547864e+02 
 ZONE T="TIME=9.000000000000e+05"
0.000000000000e+00 1.010000000000e+05 4.000000000000e+02 
2.000000000000e-01 1.009729658394e+05 3.999611380151e+02 
4.000000000000e-01 1.009458900829e+05 3.998684386934e+02 
6.000000000000e-01 1.009187353407e+05 3.996898567432e+02 
8.000000000000e-01 1.008914495157e+05 3.993871191351e+02 
1.000000000000e+00 1.008639649257e+05 3.989180290876e+02 
1.200000000000e+00 1.008361982062e+05 3.982394919351e+02 
1.400000000000e+00 1.008080508060e+05 3.973108481526e+02 
1.600000000000e+00 1.007794098392e+05 3.960970741148e+02 
1.800000000000e+00 1.007501490838e+05 3.945714708611e+02 
2.000000000000e+00 1.007201299863e+05 3.927175768425e+02 
2.200000000000e+00 1.006892026185e+05 3.905301784147e+02 
2.400000000000e+00 1.006572066149e+05 3.880154219469e+02 
2.600000000000e+00 1.006239721837e+05 3.851901336814e+02 
2.800000000000e+00 1.005893213243e+05 3.820805187158e+02 
3.000000000000e+00 1.005530694014e+05 3.787204388611e+02 
3.200000000000e+00 1.005150272156e+05 3.751494670505e+02 
3.400000000000e+00 1.004750036798e+05 3.714108928934e+02 
3.600000000000e+00 1.004328091567e+05 3.675498200151e+02 
3.800000000000e+00 1.003882594479e+05 3.636114617013e+02 
4.000000000000e+00 1.003411803694e+05 3.596397242859e+02 
4.200000000000e+00 1.002914128653e+05 3.556762237624e+02 
4.400000000000e+00 1.002388190027e+05 3.517602762953e+02 
4.600000000000e+00 1.001832913087e+05 3.479326147848e+02 
4.800000000000e+00 1.001247786717e+05 3.442588038522e+02 
5.000000000000e+00 1.000633983652e+05 3.409757018127e+02 
5.200000000000e+00 1.000000000000e+05 3.394831255870e+02 
 ZONE T="TIME=1.000000000000e+06"
0.000000000000e+00 1.010000000000e+05 4.000000000000e+02 
2.000000000000e-01 1.009693675431e+05 3.999892063264e+02 
4.000000000000e-01 1.009387188659e+05 3.999605074426e+02 
6.000000000000e-01 1.009080366880e+05 3.999003187259e+02 
8.000000000000e-01 1.008772948921e+05 3.997904526117e+02 
1.000000000000e+00 1.008464570125e+05 3.996083320787e+02 
1.200000000000e+00 1.008154751571e+05 3.993277291206e+02 
1.400000000000e+00 1.007842894117e+05 3.989199796525e+02 
1.600000000000e+00 1.007528276921e+05 3.983555551006e+02 
1.800000000000e+00 1.007210059551e+05 3.976058238971e+02 
2.000000000000e+00 1.006887286509e+05 3.966448190355e+02 
2.200000000000e+00 1.006558893073e+05 3.954508395188e+02 
2.400000000000e+00 1.006223711580e+05 3.940077475807e+02 
2.600000000000e+00 1.005880477660e+05 3.923058708565e+02 
2.800000000000e+00 1.005527836348e+05 3.903424698239e+02 
3.000000000000e+00 1.005164348310e+05 3.881217779034e+02 
3.200000000000e+00 1.004788496764e+05 3.856546592093e+02 
3.400000000000e+00 1.004398695822e+05 3.829579545133e+02 
3.600000000000e+00 1.003993301101e+05 3.800535995812e+02 
3.800000000000e+00 1.003570623430e+05 3.769676043646e+02 
4.000000000000e+00 1.003128946484e+05 3.737289841793e+02 
4.200000000000e+00 1.002666549389e+05 3.703687630866e+02 
4.400000000000e+00 1.002181737328e+05 3.669193706484e+02 
4.600000000000e+00 1.001672895204e+05 3.634160686361e+02 
4.800000000000e+00 1.001138654353e+05 3.599118159918e+02 
5.000000000000e+00 1.000578772644e+05 3.566033409818e+02 
5.200000000000e+00 1.000000000000e+05 3.550425932987e+02 
 ZONE T="TIME=1.100000000000e+06"
0.000000000000e+00 1.010000000000e+05 4.000000000000e+02 
2.000000000000e-01 1.009663940191e+05 3.999973012763e+02 
4.000000000000e-01 1.009327826991e+05 3.999893597974e+02 
6.000000000000e-01 1.008991593558e+05 3.999712814306e+02 
8.000000000000e-01 1.008655129863e+05 3.999358129206e+02 
1.000000000000e+00 1.008318270073e+05 3.998730102854e+02 
1.200000000000e+00 1.007980780672e+05 3.997700992107e+02 
1.400000000000e+00 1.007642350312e+05 3.996115749294e+02 
1.600000000000e+00 1.007302582095e+05 3.993795599708e+02 
1.800000000000e+00 1.006960988600e+05 3.990544061005e+02 
2.000000000000e+00 1.006616989600e+05 3.986154972727e+02 
2.200000000000e+00 1.006269912103e+05 3.980421879439e+02 
2.400000000000e+00 1.005918992188e+05 3.973147983369e+02 
2.600000000000e+00 1.005563378032e+05 3.964155859392e+02 
2.800000000000e+00 1.005202133602e+05 3.953296196914e+02 
3.000000000000e+00 1.004834242601e+05 3.940454977497e+02 
3.200000000000e+00 1.004458612438e+05 3.925558685382e+02 
3.400000000000e+00 1.004074078187e+05 3.908577351331e+02 
3.600000000000e+00 1.003679406651e+05 3.889525423774e+02 
3.800000000000e+00 1.003273300820e+05 3.868460630354e+02 
4.000000000000e+00 1.002854405144e+05 3.845481145209e+02 
4.200000000000e+00 1.002421312275e+05 3.820721609654e+02 
4.400000000000e+00 1.001972572791e+05 3.794349501344e+02 
4.600000000000e+00 1.001506714693e+05 3.766569846949e+02 
4.800000000000e+00 1.001022318247e+05 3.737704405985e+02 
5.000000000000e+00 1.000518537280e+05 3.709081517295e+02 
5.200000000000e+00 1.000000000000e+05 3.695145202763e+02 
 ZONE T="TIME=1.200000000000e+06"
0.000000000000e+00 1.010000000000e+05 4.000000000000e+02 
2.000000000000e-01 1.009643048510e+05 3.999993663967e+02 
4.000000000000e-01 1.009286081743e+05 3.999973299868e+02 
6.000000000000e-01 1.008929077611e+05 3.999923327714e+02 
8.000000000000e-01 1.008571996562e+05 3.999818430220e+02 
1.000000000000e+00 1.008214774266e+05 3.999620727937e+02 
1.200000000000e+00 1.007857313535e+05 3.999277219942e+02 
1.400000000000e+00 1.007499475995e+05 3.998717841904e+02 
1.600000000000e+00 1.007141074096e+05 3.997854463905e+02 
1.800000000000e+00 1.006781863972e+05 3.996581073484e+02 
2.000000000000e+00 1.006421539595e+05 3.994775276839e+02 
2.200000000000e+00 1.006059728446e+05 3.992301119957e+02 
2.400000000000e+00 1.005695988798e+05 3.989013100395e+02 
2.600000000000e+00 1.005329808508e+05 3.984761126582e+02 
2.800000000000e+00 1.004960605108e+05 3.979396097807e+02 
3.000000000000e+00 1.004587726913e+05 3.972775731999e+02 
3.200000000000e+00 1.004210454839e+05 3.964770261667e+02 
3.400000000000e+00 1.003828004649e+05 3.955267647703e+02 
3.600000000000e+00 1.003439529415e+05 3.944178019066e+02 
3.800000000000e+00 1.003044122057e+05 3.931437125511e+02 
4.000000000000e+00 1.002640817912e+05 3.917008686630e+02 
4.200000000000e+00 1.002228597430e+05 3.900885660574e+02 
4.400000000000e+00 1.001806389465e+05 3.883090887412e+02 
4.600000000000e+00 1.001373077615e+05 3.863680534080e+02 
4.800000000000e+00 1.000927529351e+05 3.842785219491e+02 
5.000000000000e+00 1.000468863659e+05 3.821179216448e+02 
5.200000000000e+00 1.000000000000e+05 3.810390892449e+02 
 ZONE T="TIME=1.300000000000e+06"
0.000000000000e+00 1.010000000000e+05 4.000000000000e+02 
2.000000000000e-01 1.009630120402e+05 3.999998555271e+02 
4.000000000000e-01 1.009260236831e+05 3.999993560682e+02 
6.000000000000e-01 1.008890342796e+05 3.999980468109e+02 
8.000000000000e-01 1.008520425718e+05 3.999951249261e+02 
1.000000000000e+00 1.008150463608e+05 3.999892918869e+02 
1.200000000000e+00 1.007780420928e+05 3.999785892278e+02 
1.400000000000e+00 1.007410243758e+05 3.999602305269e+02 
1.600000000000e+00 1.007039854465e+05 3.999304454607e+02 
1.800000000000e+00 1.006669146139e+05 3.998843531245e+02 
2.000000000000e+00 1.006297977108e+05 3.998158811452e+02 
2.200000000000e+00 1.005926165820e+05 3.997177444587e+02 
2.400000000000e+00 1.005553486351e+05 3.995814932929e+02 
2.600000000000e+00 1.005179664733e+05 3.993976344206e+02 
2.800000000000e+00 1.004804376203e+05 3.991558237749e+02 
3.000000000000e+00 1.004427243410e+05 3.988451227392e+02 
3.200000000000e+00 1.004047835505e+05 3.984543054263e+02 
3.400000000000e+00 1.003665668030e+05 3.979722005203e+02 
3.600000000000e+00 1.003280203436e+05 3.973880490597e+02 
3.800000000000e+00 1.002890852077e+05 3.966918590216e+02 
4.000000000000e+00 1.002496973534e+05 3.958747388332e+02 
4.200000000000e+00 1.002097878151e+05 3.949291960451e+02 
4.400000000000e+00 1.001692828794e+05 3.938494040901e+02 
4.600000000000e+00 1.001281043613e+05 3.926315728776e+02 
4.800000000000e+00 1.000861708096e+05 3.912762464673e+02 
5.000000000000e+00 1.000434111093e+05 3.898241190349e+02 
5.200000000000e+00 1.000000000000e+05 3.890846664106e+02 
 ZONE T="TIME=1.400000000000e+06"
0.000000000000e+00 1.010000000000e+05 4.000000000000e+02 
2.000000000000e-01 1.009622820568e+05 3.999999673117e+02 
4.000000000000e-01 1.009245640158e+05 3.999998474949e+02 
6.000000000000e-01 1.008868457005e+05 3.999995151651e+02 
8.000000000000e-01 1.008491267432e+05 3.999987321688e+02 
1.000000000000e+00 1.008114064577e+05 3.999970856300e+02 
1.200000000000e+00 1.007736836631e+05 3.999939099128e+02 
1.400000000000e+00 1.007359564581e+05 3.999881945675e+02 
1.600000000000e+00 1.006982219444e+05 3.999784825039e+02 
1.800000000000e+00 1.006604759060e+05 3.999627646711e+02 
2.000000000000e+00 1.006227124538e+05 3.999383791332e+02 
2.200000000000e+00 1.005849236483e+05 3.999019233632e+02 
2.400000000000e+00 1.005470991182e+05 3.998491886821e+02 
2.600000000000e+00 1.005092256892e+05 3.997751249950e+02 
2.800000000000e+00 1.004712870414e+05 3.996738423735e+02 
3.000000000000e+00 1.004332634069e+05 3.995386537680e+02 
3.200000000000e+00 1.003951313185e+05 3.993621604194e+02 
3.400000000000e+00 1.003568634157e+05 3.991363786498e+02 
3.600000000000e+00 1.003184283079e+05 3.988529039147e+02 
3.800000000000e+00 1.002797904951e+05 3.985031055475e+02 
4.000000000000e+00 1.002409103373e+05 3.980783437965e+02 
4.200000000000e+00 1.002017440695e+05 3.975702001118e+02 
4.400000000000e+00 1.001622438531e+05 3.969707163569e+02 
4.600000000000e+00 1.001223578889e+05 3.962726986131e+02 
4.800000000000e+00 1.000820309613e+05 3.954710866880e+02 
5.000000000000e+00 1.000412117820e+05 3.945854740290e+02 
5.200000000000e+00 1.000000000000e+05 3.941274426911e+02 
 ZONE T="TIME=1.500000000000e+06"
0.000000000000e+00 1.010000000000e+05 4.000000000000e+02 
2.000000000000e-01 1.009618968330e+05 3.999999925761e+02 
4.000000000000e-01 1.009237936427e+05 3.999999640722e+02 
6.000000000000e-01 1.008856903831e+05 3.999998811567e+02 
8.000000000000e-01 1.008475869525e+05 3.999996763308e+02 
1.000000000000e+00 1.008094831496e+05 3.999992251528e+02 
1.200000000000e+00 1.007713786076e+05 3.999983147182e+02 
1.400000000000e+00 1.007332727028e+05 3.999966026132e+02 
1.600000000000e+00 1.006951644333e+05 3.999935663524e+02 
1.800000000000e+00 1.006570522650e+05 3.999884443035e+02 
2.000000000000e+00 1.006189339468e+05 3.999801701839e+02 
2.200000000000e+00 1.005808062946e+05 3.999673042706e+02 
2.400000000000e+00 1.005426649511e+05 3.999479653716e+02 
2.600000000000e+00 1.005045041265e+05 3.999197682505e+02 
2.800000000000e+00 1.004663163291e+05 3.998797714846e+02 
3.000000000000e+00 1.004280920963e+05 3.998244406283e+02 
3.200000000000e+00 1.003898197339e+05 3.997496310306e+02 
3.400000000000e+00 1.003514850743e+05 3.996505937630e+02 
3.600000000000e+00 1.003130712600e+05 3.995220069139e+02 
3.800000000000e+00 1.002745585606e+05 3.993580331041e+02 
4.000000000000e+00 1.002359242238e+05 3.991524026125e+02 
4.200000000000e+00 1.001971423653e+05 3.988985202528e+02 
4.400000000000e+00 1.001581838958e+05 3.985895949897e+02 
4.600000000000e+00 1.001190164966e+05 3.982188202220e+02 
4.800000000000e+00 1.000796048302e+05 3.977801903194e+02 
5.000000000000e+00 1.000399146993e+05 3.972822971321e+02 
5.200000000000e+00 1.000000000000e+05 3.970214958717e+02 
 ZONE T="TIME=1.600000000000e+06"
0.000000000000e+00 1.010000000000e+05 4.000000000000e+02 
2.000000000000e-01 1.009617042387e+05 3.999999982990e+02 
4.000000000000e-01 1.009234084719e+05 3.999999915230e+02 
6.000000000000e-01 1.008851126879e+05 3.999999710091e+02 
8.000000000000e-01 1.008468168596e+05 3.999999182107e+02 
1.000000000000e+00 1.008085209303e+05 3.999997970274e+02 
1.200000000000e+00 1.007702247912e+05 3.999995423375e+02 
1.400000000000e+00 1.007319282482e+05 3.999990438432e+02 
1.600000000000e+00 1.006936309737e+05 3.999981244890e+02 
1.800000000000e+00 1.006553324424e+05 3.999965129901e+02 
2.000000000000e+00 1.006170318474e+05 3.999938104100e+02 
2.200000000000e+00 1.005787279950e+05 3.999894512350e+02 
2.400000000000e+00 1.005404191794e+05 3.999826599544e+02 
2.600000000000e+00 1.005021030354e+05 3.999724047371e+02 
2.800000000000e+00 1.004637763736e+05 3.999573503242e+02 
3.000000000000e+00 1.004254349991e+05 3.999358126891e+02 
3.200000000000e+00 1.003870735211e+05 3.999057182992e+02 
3.400000000000e+00 1.003486851553e+05 3.998645709109e+02 
3.600000000000e+00 1.003102615273e+05 3.998094287237e+02 
3.800000000000e+00 1.002717924831e+05 3.997368944109e+02 
4.000000000000e+00 1.002332659096e+05 3.996431200567e+02 
4.200000000000e+00 1.001946675736e+05 3.995238284606e+02 
4.400000000000e+00 1.001559809804e+05 3.993743524939e+02 
4.600000000000e+00 1.001171872629e+05 3.991897098691e+02 
4.800000000000e+00 1.000782652074e+05 3.989650653228e+02 
5.000000000000e+00 1.000391936008e+05 3.987037731749e+02 
5.200000000000e+00 1.000000000000e+05 3.985654204944e+02 
 ZONE T="TIME=1.700000000000e+06"
0.000000000000e+00 1.010000000000e+05 4.000000000000e+02 
2.000000000000e-01 1.009616123229e+05 3.999999996062e+02 
4.000000000000e-01 1.009232246445e+05 3.999999979905e+02 
6.000000000000e-01 1.008848369619e+05 3.999999929322e+02 
8.000000000000e-01 1.008464492679e+05 3.999999794422e+02 
1.000000000000e+00 1.008080615471e+05 3.999999473339e+02 
1.200000000000e+00 1.007696737683e+05 3.999998773430e+02 
1.400000000000e+00 1.007312858732e+05 3.999997352892e+02 
1.600000000000e+00 1.006928977591e+05 3.999994637376e+02 
1.800000000000e+00 1.006545092543e+05 3.999989706337e+02 
2.000000000000e+00 1.006161200833e+05 3.999981144605e+02 
2.200000000000e+00 1.005777298219e+05 3.999966856126e+02 
2.400000000000e+00 1.005393378386e+05 3.999943838863e+02 
2.600000000000e+00 1.005009432225e+05 3.999907922571e+02 
2.800000000000e+00 1.004625446968e+05 3.999853474155e+02 
3.000000000000e+00 1.004241405173e+05 3.999773078662e+02 
3.200000000000e+00 1.003857283573e+05 3.999657207084e+02 
3.400000000000e+00 1.003473051805e+05 3.999493885031e+02 
3.600000000000e+00 1.003088671035e+05 3.999268378544e+02 
3.800000000000e+00 1.002704092516e+05 3.998962914733e+02 
4.000000000000e+00 1.002319256109e+05 3.998556455358e+02 
4.200000000000e+00 1.001934088809e+05 3.998024541124e+02 
4.400000000000e+00 1.001548503301e+05 3.997339227694e+02 
4.600000000000e+00 1.001162396636e+05 3.996469227524e+02 
4.800000000000e+00 1.000775649656e+05 3.995382333921e+02 
5.000000000000e+00 1.000388139697e+05 3.994089608543e+02 
5.200000000000e+00 1.000000000000e+05 3.993398620325e+02 
 ZONE T="TIME=1.800000000000e+06"
0.000000000000e+00 1.010000000000e+05 4.000000000000e+02 
2.000000000000e-01 1.009615702490e+05 3.999999999079e+02 
4.000000000000e-01 1.009231404976e+05 3.999999995209e+02 
6.000000000000e-01 1.008847107452e+05 3.999999982743e+02 
8.000000000000e-01 1.008462809900e+05 3.999999948457e+02 
1.000000000000e+00 1.008078512277e+05 3.999999864187e+02 
1.200000000000e+00 1.007694214496e+05 3.999999674375e+02 
1.400000000000e+00 1.007309916387e+05 3.999999276242e+02 
1.600000000000e+00 1.006925617639e+05 3.999998489781e+02 
1.800000000000e+00 1.006541317709e+05 3.999997014445e+02 
2.000000000000e+00 1.006157015694e+05 3.999994369145e+02 
2.200000000000e+00 1.005772710146e+05 3.999989812284e+02 
2.400000000000e+00 1.005388398832e+05 3.999982238905e+02 
2.600000000000e+00 1.005004078408e+05 3.999970052767e+02 
2.800000000000e+00 1.004619744014e+05 3.999951012271e+02 
3.000000000000e+00 1.004235388772e+05 3.999922050601e+02 
3.200000000000e+00 1.003851003182e+05 3.999879072134e+02 