 TITLE = "Time curves in points"
 VARIABLES = "TIME " "PRESSURE1" "TEMPERATURE1" "VELOCITY_X1" "VELOCITY_Y1" "VELOCITY_Z1" 
 ZONE T="POINT=POINT15"
0.000000000000e+00 1.750000000000e+06 6.000000000000e+01 0.000000000000e+00 0.000000000000e+00 0.000000000000e+00 
1.000000000000e+00 1.745330942232e+06 5.995018410351e+01 -2.761646180581e-03 1.707151071434e-03 -1.930835108013e-02 
3.710000000000e+00 1.745564330029e+06 5.995516625786e+01 -1.692012856938e-03 1.002769598324e-03 -1.165033213925e-02 
1.091860000000e+01 1.750989594659e+06 5.995965472042e+01 -6.447094224102e-04 3.665503995759e-04 -4.374528818809e-03 
2.973304600000e+01 1.761688779560e+06 5.996092584441e+01 -2.013876246304e-04 9.814882838530e-05 -1.298422829155e-03 
7.789802776000e+01 1.775922148448e+06 5.996156669172e+01 -9.753537169348e-05 3.850635375196e-05 -5.912311614506e-04 
1.987921319600e+02 1.788288222975e+06 5.996638669944e+01 -6.611138277541e-05 2.526445569493e-05 -3.972611111331e-04 
4.961916283600e+02 1.795892582243e+06 5.997222798155e+01 -4.647963662519e-05 1.724369490159e-05 -2.771758786404e-04 
1.212924414660e+03 1.798012469526e+06 5.997674545322e+01 -3.211564419646e-05 1.013640290460e-05 -1.841892510490e-04 
2.904413790660e+03 1.793001287068e+06 5.997881884710e+01 -2.113513501883e-05 4.668682269737e-06 -1.129710100513e-04 
6.811754248660e+03 1.776793020007e+06 5.997941100998e+01 -1.231044541184e-05 1.781047379024e-06 -6.197849240003e-05 
1.564234368266e+04 1.743013807131e+06 5.997960313653e+01 -5.302460825347e-06 1.531653030015e-06 -2.994522174020e-05 
3.515794633266e+04 1.687197611967e+06 5.997906110199e+01 -5.502529621930e-08 3.466862458639e-06 -1.474013853536e-05 
7.731164805266e+04 1.613905086429e+06 5.997575045871e+01 3.717068557208e-06 6.824425718214e-06 -1.193809582543e-05 
1.662559586927e+05 1.537190340536e+06 5.996930760697e+01 6.437534900687e-06 1.059804720722e-05 -1.549891294020e-05 
3.494812385927e+05 1.476586256812e+06 5.995506976582e+01 8.275728519815e-06 1.365844788215e-05 -2.001192552077e-05 
7.177640511927e+05 1.444708017547e+06 5.990621204251e+01 9.206991022068e-06 1.529039762429e-05 -2.263530496358e-05 
1.439598363893e+06 1.434739434858e+06 5.977649138549e+01 9.497491979378e-06 1.580458167411e-05 -2.347497584541e-05 
2.818301900893e+06 1.432995107034e+06 5.950308824039e+01 9.548457595858e-06 1.589488942896e-05 -2.362272328584e-05 
5.382690479893e+06 1.432827562958e+06 5.901376338979e+01 9.553359143681e-06 1.590357739109e-05 -2.363694522475e-05 
1.002423380889e+07 1.432818696363e+06 5.790122117842e+01 9.553619151480e-06 1.590403774186e-05 -2.363769756619e-05 
1.819335006789e+07 1.432818438763e+06 5.582211407265e+01 9.553626712087e-06 1.590405094656e-05 -2.363771868617e-05 
3.216253886789e+07 1.432818435744e+06 5.294116326299e+01 9.553626621839e-06 1.590405101520e-05 -2.363771936556e-05 
5.535139227789e+07 1.432818417153e+06 5.001405681973e+01 9.553626854852e-06 1.590405193706e-05 -2.363772215022e-05 
9.268544626789e+07 1.432818435901e+06 4.772060317984e+01 9.553627507622e-06 1.590405111413e-05 -2.363771586202e-05 
1.509265704979e+08 1.432818436434e+06 4.620780843899e+01 9.553626888159e-06 1.590405119247e-05 -2.363771892656e-05 
2.388706680779e+08 1.432818426380e+06 4.532882160431e+01 9.553626750661e-06 1.590405152641e-05 -2.363772091250e-05 
3.672690505779e+08 1.432818433569e+06 4.485373331120e+01 9.553627263709e-06 1.590405165100e-05 -2.363771917082e-05 
5.483107698779e+08 1.432818432971e+06 4.460380143419e+01 9.553627330027e-06 1.590405171144e-05 -2.363771912849e-05 
7.945275080779e+08 1.432818432857e+06 4.447150327575e+01 9.553627101212e-06 1.590405153895e-05 -2.363771942217e-05 
1.117071435178e+09 1.432818434553e+06 4.439821368840e+01 9.553627476336e-06 1.590405177299e-05 -2.363771873960e-05 
1.523476783278e+09 1.432818437113e+06 4.435547296295e+01 9.553626526361e-06 1.590405073480e-05 -2.363771862260e-05 
2.015227254478e+09 1.432818433414e+06 4.432974417306e+01 9.553623958885e-06 1.590405111703e-05 -2.363773155686e-05 
2.585657801078e+09 1.432818436655e+06 4.431440299012e+01 9.553626648810e-06 1.590405103038e-05 -2.363771931046e-05 
3.218835707878e+09 1.432818435939e+06 4.430546547386e+01 9.553626252199e-06 1.590405108118e-05 -2.363772127403e-05 
3.890004289078e+09 1.432818434797e+06 4.430037649710e+01 9.553624563849e-06 1.590405111332e-05 -2.363772886903e-05 
4.567884556078e+09 1.432818438530e+06 4.429746716721e+01 9.553626691526e-06 1.590405103193e-05 -2.363771912981e-05 
