 TITLE = "Time curves in points"
 VARIABLES = "TIME " "PRESSURE1" "TEMPERATURE1" "VELOCITY_X1" "VELOCITY_Y1" "VELOCITY_Z1" 
 ZONE T="POINT=POINT17"
0.000000000000e+00 1.750000000000e+06 6.000000000000e+01 0.000000000000e+00 0.000000000000e+00 0.000000000000e+00 
1.000000000000e+00 1.753836364135e+06 5.999999999902e+01 -3.810118806466e-03 -2.742132142098e-04 -2.055476566100e-02 
3.710000000000e+00 1.769939411256e+06 5.999999999943e+01 -3.047653508745e-03 -6.100743863070e-04 -1.504073480346e-02 
1.091860000000e+01 1.794165085136e+06 5.999999999965e+01 -1.766924166215e-03 -7.415443855932e-04 -7.435543991941e-03 
2.973304600000e+01 1.814117786308e+06 5.999999999973e+01 -7.380407669873e-04 -4.803771722628e-04 -2.565876783472e-03 
7.789802776000e+01 1.828151585327e+06 5.999999999979e+01 -2.864983999737e-04 -2.034546954307e-04 -9.580369500068e-04 
1.987921319600e+02 1.839158168857e+06 5.999999999984e+01 -1.466911655243e-04 -8.742434262967e-05 -5.521029463546e-04 
4.961916283600e+02 1.846370810861e+06 5.999999999987e+01 -9.059239476960e-05 -4.869067979711e-05 -3.658222568789e-04 
1.212924414660e+03 1.848459941482e+06 5.999999999988e+01 -5.513520452436e-05 -2.799794726186e-05 -2.369226241750e-04 
2.904413790660e+03 1.843365336298e+06 5.999999999989e+01 -2.888206576648e-05 -9.405695895627e-06 -1.455222054316e-04 
6.811754248660e+03 1.826854453933e+06 5.999999999991e+01 -9.746435131229e-06 9.454894773579e-06 -8.210911833516e-05 
1.564234368266e+04 1.792576771170e+06 5.999999999994e+01 3.314083412230e-06 2.578145837328e-05 -3.993645884844e-05 
3.515794633266e+04 1.736214045913e+06 6.000000000000e+01 1.081982744590e-05 3.660629742762e-05 -1.493452857720e-05 
7.731164805266e+04 1.662488801716e+06 6.000000000012e+01 1.293320255463e-05 4.142746275741e-05 -3.571598272793e-06 
1.662559586927e+05 1.585481761317e+06 6.000000000033e+01 1.206219409916e-05 4.253409525470e-05 -2.594230854429e-07 
3.494812385927e+05 1.524679168375e+06 6.000000000042e+01 1.123546765364e-05 4.247836882878e-05 1.569284455308e-07 
7.177640511927e+05 1.492693031326e+06 6.000000000026e+01 1.107707083948e-05 4.236005408201e-05 7.099550807417e-08 
1.439598363893e+06 1.482688993506e+06 6.000000000019e+01 1.109484618855e-05 4.232341770938e-05 2.132140943099e-08 
2.818301900893e+06 1.480938283707e+06 5.999999999423e+01 1.110397935911e-05 4.231754298635e-05 1.164498622513e-08 
5.382690479893e+06 1.480770118897e+06 5.999999575107e+01 1.110511230760e-05 4.231700715258e-05 1.069025418299e-08 
1.002423380889e+07 1.480761219185e+06 5.999958064030e+01 1.110516895128e-05 4.231698640954e-05 1.063936087889e-08 
1.819335006789e+07 1.480760960617e+06 5.998941559160e+01 1.110517935872e-05 4.231698028491e-05 1.063782449061e-08 
3.216253886789e+07 1.480760957667e+06 5.990279169935e+01 1.110518572614e-05 4.231697500897e-05 1.063764194026e-08 
5.535139227789e+07 1.480760939049e+06 5.956789954663e+01 1.110516846006e-05 4.231698531605e-05 1.063779528227e-08 
9.268544626789e+07 1.480760957773e+06 5.883939940203e+01 1.110518435799e-05 4.231697588382e-05 1.063766230374e-08 
1.509265704979e+08 1.480760958277e+06 5.780901268264e+01 1.110518317740e-05 4.231697807283e-05 1.063782896562e-08 
2.388706680779e+08 1.480760948282e+06 5.678369419607e+01 1.110517148307e-05 4.231698389061e-05 1.063772138079e-08 
3.672690505779e+08 1.480760955299e+06 5.602601440603e+01 1.110517330538e-05 4.231698595272e-05 1.063789746772e-08 
5.483107698779e+08 1.480760954692e+06 5.558440958326e+01 1.110517057955e-05 4.231698774544e-05 1.063791888788e-08 
7.945275080779e+08 1.480760954637e+06 5.536309669699e+01 1.110517529487e-05 4.231698386004e-05 1.063785614092e-08 
1.117071435178e+09 1.480760956216e+06 5.525021577323e+01 1.110517136430e-05 4.231698831817e-05 1.063797190174e-08 
1.523476783278e+09 1.480760959106e+06 5.517945347004e+01 1.110519158510e-05 4.231697016928e-05 1.063763446306e-08 
2.015227254478e+09 1.480760955377e+06 5.512754462167e+01 1.110518240842e-05 4.231697928402e-05 1.063787256391e-08 
2.585657801078e+09 1.480760958552e+06 5.508939879078e+01 1.110518476898e-05 4.231697620270e-05 1.063769843351e-08 
3.218835707878e+09 1.480760957838e+06 5.506317642240e+01 1.110518357794e-05 4.231697749108e-05 1.063789028304e-08 
3.890004289078e+09 1.480760956727e+06 5.504641514633e+01 1.110518185743e-05 4.231697971420e-05 1.063791869812e-08 
4.567884556078e+09 1.480760960473e+06 5.503623003938e+01 1.110518734283e-05 4.231697360035e-05 1.063784113982e-08 
