 TITLE = "Time curves in points"
 VARIABLES = "TIME" "TEMPERATURE1" 
 ZONE T="POINT=POINT12"
0.000000000000e+00 2.981500000000e+02 
2.000000000000e-01 2.981500460532e+02 
4.000000000000e-01 2.981499563417e+02 
6.000000000000e-01 2.981502928764e+02 
8.000000000000e-01 2.981486874788e+02 
1.000000000000e+00 2.981484883392e+02 
