 TITLE = "Time curves in points"
 VARIABLES = "TIME " "TEMPERATURE1" 
 ZONE T="POINT=POINT4"
0.000000000000e+00 0.000000000000e+00 
5.000000000000e-03 9.006134092282e-02 
1.000000000000e-02 1.048033098385e-01 
1.500000000000e-02 1.404258148916e-01 
2.000000000000e-02 1.554930696841e-01 
2.500000000000e-02 1.786685141556e-01 
3.000000000000e-02 1.929247255163e-01 
3.500000000000e-02 2.106316310723e-01 
4.000000000000e-02 2.239022054176e-01 
4.500000000000e-02 2.386115903302e-01 
5.000000000000e-02 2.509300868191e-01 
5.500000000000e-02 2.637726299469e-01 
6.000000000000e-02 2.752356230355e-01 
6.500000000000e-02 2.868038550902e-01 
7.000000000000e-02 2.975200151846e-01 
7.500000000000e-02 3.081550376751e-01 
8.000000000000e-02 3.182258125602e-01 
8.500000000000e-02 3.281393394931e-01 
9.000000000000e-02 3.376528712320e-01 
9.500000000000e-02 3.469849974821e-01 
1.000000000000e-01 3.560154912197e-01 
1.050000000000e-01 3.648641649093e-01 
1.100000000000e-01 3.734732851134e-01 
1.150000000000e-01 3.819102589292e-01 
1.200000000000e-01 3.901490811244e-01 
1.250000000000e-01 3.982289953445e-01 
1.300000000000e-01 4.061399166884e-01 
1.350000000000e-01 4.139057166794e-01 
1.400000000000e-01 4.215241163704e-01 
1.450000000000e-01 4.290104279330e-01 
1.500000000000e-01 4.363660343372e-01 
1.550000000000e-01 4.436013552505e-01 
1.600000000000e-01 4.507193419325e-01 
1.650000000000e-01 4.577275206704e-01 
1.700000000000e-01 4.646293740916e-01 
1.750000000000e-01 4.714306431740e-01 
1.800000000000e-01 4.781348465586e-01 
1.850000000000e-01 4.847465675684e-01 
1.900000000000e-01 4.912691401491e-01 
1.950000000000e-01 4.977063556854e-01 
2.000000000000e-01 5.040612794524e-01 
2.050000000000e-01 5.103371317199e-01 
2.100000000000e-01 5.165366910232e-01 
2.150000000000e-01 5.226627456635e-01 
2.200000000000e-01 5.287177992864e-01 
2.250000000000e-01 5.347043001821e-01 
2.300000000000e-01 5.406245009157e-01 
2.350000000000e-01 5.464805736012e-01 
2.400000000000e-01 5.522745467994e-01 
2.450000000000e-01 5.580083628788e-01 
2.500000000000e-01 5.636838527593e-01 
2.550000000000e-01 5.693027642527e-01 
2.600000000000e-01 5.748667546627e-01 
2.650000000000e-01 5.803774048326e-01 
2.700000000000e-01 5.858362196483e-01 
2.750000000000e-01 5.912446352009e-01 
2.800000000000e-01 5.966040223672e-01 
2.850000000000e-01 6.019156907457e-01 
2.900000000000e-01 6.071808930753e-01 
2.950000000000e-01 6.124008277051e-01 
3.000000000000e-01 6.175766428875e-01 
3.050000000000e-01 6.227094386004e-01 
3.100000000000e-01 6.278002703586e-01 
3.150000000000e-01 6.328501507488e-01 
3.200000000000e-01 6.378600526823e-01 
3.250000000000e-01 6.428309107876e-01 
3.300000000000e-01 6.477636241403e-01 
3.350000000000e-01 6.526590575645e-01 
3.400000000000e-01 6.575180439131e-01 
3.450000000000e-01 6.623413852907e-01 
3.500000000000e-01 6.671298549634e-01 
3.550000000000e-01 6.718841985016e-01 
3.600000000000e-01 6.766051353896e-01 
3.650000000000e-01 6.812933600862e-01 
3.700000000000e-01 6.859495433918e-01 
3.750000000000e-01 6.905743334253e-01 
3.800000000000e-01 6.951683567960e-01 
3.850000000000e-01 6.997322194973e-01 
3.900000000000e-01 7.042665079203e-01 
3.950000000000e-01 7.087717896676e-01 
4.000000000000e-01 7.132486144367e-01 
4.050000000000e-01 7.176975147593e-01 
4.100000000000e-01 7.221190067766e-01 
4.150000000000e-01 7.265135909090e-01 
4.200000000000e-01 7.308817525415e-01 
4.250000000000e-01 7.352239626300e-01 
4.300000000000e-01 7.395406783097e-01 
4.350000000000e-01 7.438323434446e-01 
4.400000000000e-01 7.480993891703e-01 
4.450000000000e-01 7.523422343911e-01 
4.500000000000e-01 7.565612862674e-01 
4.550000000000e-01 7.607569406659e-01 
4.600000000000e-01 7.649295825977e-01 
4.650000000000e-01 7.690795866271e-01 
4.700000000000e-01 7.732073172673e-01 
4.750000000000e-01 7.773131293514e-01 
4.800000000000e-01 7.813973683905e-01 
4.850000000000e-01 7.854603709117e-01 
4.900000000000e-01 7.895024647825e-01 
4.950000000000e-01 7.935239695193e-01 
5.000000000000e-01 7.975251965828e-01 
5.050000000000e-01 8.015064496582e-01 
5.100000000000e-01 8.054680249259e-01 
5.150000000000e-01 8.094102113175e-01 
5.200000000000e-01 8.133332907622e-01 
5.250000000000e-01 8.172375384222e-01 
5.300000000000e-01 8.211232229175e-01 
5.350000000000e-01 8.249906065421e-01 
5.400000000000e-01 8.288399454706e-01 
5.450000000000e-01 8.326714899559e-01 
5.500000000000e-01 8.364854845192e-01 
5.550000000000e-01 8.402821681325e-01 
5.600000000000e-01 8.440617743929e-01 
5.650000000000e-01 8.478245316905e-01 
5.700000000000e-01 8.515706633693e-01 
5.750000000000e-01 8.553003878823e-01 
5.800000000000e-01 8.590139189399e-01 
5.850000000000e-01 8.627114656527e-01 
5.900000000000e-01 8.663932326692e-01 
5.950000000000e-01 8.700594203078e-01 
6.000000000000e-01 8.737102246840e-01 
6.050000000000e-01 8.773458378328e-01 
6.100000000000e-01 8.809664478270e-01 
6.150000000000e-01 8.845722388899e-01 
6.200000000000e-01 8.881633915054e-01 
6.250000000000e-01 8.917400825234e-01 
6.300000000000e-01 8.953024852608e-01 
6.350000000000e-01 8.988507696002e-01 
6.400000000000e-01 9.023851020842e-01 
6.450000000000e-01 9.059056460064e-01 
6.500000000000e-01 9.094125614999e-01 
6.550000000000e-01 9.129060056217e-01 
6.600000000000e-01 9.163861324355e-01 
6.650000000000e-01 9.198530930902e-01 
6.700000000000e-01 9.233070358972e-01 
6.750000000000e-01 9.267481064040e-01 
6.800000000000e-01 9.301764474660e-01 
6.850000000000e-01 9.335921993153e-01 
6.900000000000e-01 9.369954996285e-01 
6.950000000000e-01 9.403864835904e-01 
7.000000000000e-01 9.437652839574e-01 
7.050000000000e-01 9.471320311179e-01 
7.100000000000e-01 9.504868531510e-01 
7.150000000000e-01 9.538298758833e-01 
7.200000000000e-01 9.571612229443e-01 
7.250000000000e-01 9.604810158191e-01 
7.300000000000e-01 9.637893739010e-01 
7.350000000000e-01 9.670864145406e-01 
7.400000000000e-01 9.703722530952e-01 
7.450000000000e-01 9.736470029756e-01 
7.500000000000e-01 9.769107756914e-01 
7.550000000000e-01 9.801636808961e-01 
7.600000000000e-01 9.834058264294e-01 
7.650000000000e-01 9.866373183591e-01 
7.700000000000e-01 9.898582610218e-01 
7.750000000000e-01 9.930687570621e-01 
7.800000000000e-01 9.962689074704e-01 
7.850000000000e-01 9.994588116208e-01 
7.900000000000e-01 1.002638567306e+00 
7.950000000000e-01 1.005808270774e+00 
8.000000000000e-01 1.008968016759e+00 
8.050000000000e-01 1.012117898519e+00 
8.100000000000e-01 1.015258007863e+00 
8.150000000000e-01 1.018388435186e+00 
8.200000000000e-01 1.021509269497e+00 
8.250000000000e-01 1.024620598450e+00 
8.300000000000e-01 1.027722508373e+00 
8.350000000000e-01 1.030815084294e+00 
8.400000000000e-01 1.033898409968e+00 
8.450000000000e-01 1.036972567908e+00 
8.500000000000e-01 1.040037639406e+00 
8.550000000000e-01 1.043093704559e+00 
8.600000000000e-01 1.046140842295e+00 
8.650000000000e-01 1.049179130395e+00 
8.700000000000e-01 1.052208645518e+00 
8.750000000000e-01 1.055229463222e+00 
8.800000000000e-01 1.058241657987e+00 
8.850000000000e-01 1.061245303235e+00 
8.900000000000e-01 1.064240471354e+00 
8.950000000000e-01 1.067227233713e+00 
9.000000000000e-01 1.070205660689e+00 
9.050000000000e-01 1.073175821678e+00 
9.100000000000e-01 1.076137785123e+00 
9.150000000000e-01 1.079091618524e+00 
9.200000000000e-01 1.082037388462e+00 
9.250000000000e-01 1.084975160612e+00 
9.300000000000e-01 1.087904999765e+00 
9.350000000000e-01 1.090826969839e+00 
9.400000000000e-01 1.093741133901e+00 
9.450000000000e-01 1.096647554177e+00 
9.500000000000e-01 1.099546292074e+00 
9.550000000000e-01 1.102437408189e+00 
9.600000000000e-01 1.105320962327e+00 
9.650000000000e-01 1.108197013517e+00 
9.700000000000e-01 1.111065620021e+00 
9.750000000000e-01 1.113926839353e+00 
9.800000000000e-01 1.116780728289e+00 
9.850000000000e-01 1.119627342882e+00 
9.900000000000e-01 1.122466738475e+00 
9.950000000000e-01 1.125298969711e+00 
1.000000000000e+00 1.128124090549e+00 
