 TITLE = "Profiles along polylines"
 VARIABLES = "DIST" "TEMPERATURE1" 
 ZONE T="TIME=0.000000000000e+00"
0.000000000000e+00 0.000000000000e+00 
1.020408163265e-01 0.000000000000e+00 
2.040816326531e-01 0.000000000000e+00 
3.061224489796e-01 0.000000000000e+00 
4.081632653062e-01 0.000000000000e+00 
5.102040816327e-01 0.000000000000e+00 
6.122448979592e-01 0.000000000000e+00 
7.142857142858e-01 0.000000000000e+00 
8.163265306123e-01 0.000000000000e+00 
9.183673469388e-01 0.000000000000e+00 
1.020408163265e+00 0.000000000000e+00 
1.122448979592e+00 0.000000000000e+00 
1.224489795918e+00 0.000000000000e+00 
1.326530612245e+00 0.000000000000e+00 
1.428571428572e+00 0.000000000000e+00 
1.530612244898e+00 0.000000000000e+00 
1.632653061225e+00 0.000000000000e+00 
1.734693877551e+00 0.000000000000e+00 
1.836734693878e+00 0.000000000000e+00 
1.938775510204e+00 0.000000000000e+00 
2.040816326531e+00 0.000000000000e+00 
2.142857142857e+00 0.000000000000e+00 
2.244897959184e+00 0.000000000000e+00 
2.346938775510e+00 0.000000000000e+00 
2.448979591837e+00 0.000000000000e+00 
2.551020408163e+00 0.000000000000e+00 
2.653061224490e+00 0.000000000000e+00 
2.755102040816e+00 0.000000000000e+00 
2.857142857143e+00 0.000000000000e+00 
2.959183673469e+00 0.000000000000e+00 
3.061224489796e+00 0.000000000000e+00 
3.163265306123e+00 0.000000000000e+00 
3.265306122449e+00 0.000000000000e+00 
3.367346938776e+00 0.000000000000e+00 
3.469387755102e+00 0.000000000000e+00 
3.571428571429e+00 0.000000000000e+00 
3.673469387755e+00 0.000000000000e+00 
3.775510204082e+00 0.000000000000e+00 
3.877551020408e+00 0.000000000000e+00 
3.979591836735e+00 0.000000000000e+00 
4.081632653061e+00 0.000000000000e+00 
4.183673469388e+00 0.000000000000e+00 
4.285714285714e+00 0.000000000000e+00 
4.387755102041e+00 0.000000000000e+00 
4.489795918367e+00 0.000000000000e+00 
4.591836734694e+00 0.000000000000e+00 
4.693877551020e+00 0.000000000000e+00 
4.795918367347e+00 0.000000000000e+00 
4.897959183673e+00 0.000000000000e+00 
5.000000000000e+00 0.000000000000e+00 
 ZONE T="TIME=5.000000000000e-01"
0.000000000000e+00 7.971388177128e-01 
1.020408163265e-01 6.998980651335e-01 
2.040816326531e-01 6.102556723153e-01 
3.061224489796e-01 5.287724731880e-01 
4.081632653062e-01 4.551141588678e-01 
5.102040816327e-01 3.891663676175e-01 
6.122448979592e-01 3.304739521241e-01 
7.142857142858e-01 2.786251953800e-01 
8.163265306123e-01 2.332610732227e-01 
9.183673469388e-01 1.939134924626e-01 
1.020408163265e+00 1.599344208850e-01 
1.122448979592e+00 1.308700750753e-01 
1.224489795918e+00 1.062970852714e-01 
1.326530612245e+00 8.573149241890e-02 
1.428571428572e+00 6.854398643397e-02 
1.530612244898e+00 5.433857617303e-02 
1.632653061225e+00 4.277472700325e-02 
1.734693877551e+00 3.337722196449e-02 
1.836734693878e+00 2.577277880576e-02 
1.938775510204e+00 1.978154998919e-02 
2.040816326531e+00 1.498987862512e-02 
2.142857142857e+00 1.128653234443e-02 
2.244897959184e+00 8.468876419640e-03 
2.346938775510e+00 6.259378223536e-03 
2.448979591837e+00 4.586039311035e-03 
2.551020408163e+00 3.331326880835e-03 
2.653061224490e+00 2.400995111799e-03 
2.755102040816e+00 1.712649152638e-03 
2.857142857143e+00 1.209503985324e-03 
2.959183673469e+00 8.430459140432e-04 
3.061224489796e+00 5.899637126031e-04 
3.163265306123e+00 4.034360439273e-04 
3.265306122449e+00 2.733251402713e-04 
3.367346938776e+00 1.841279320684e-04 
3.469387755102e+00 1.225169786946e-04 
3.571428571429e+00 8.102646020956e-05 
3.673469387755e+00 5.268915839423e-05 
3.775510204082e+00 3.410452729048e-05 
3.877551020408e+00 2.184096259744e-05 
3.979591836735e+00 1.380568679618e-05 
4.081632653061e+00 8.688175425634e-06 
4.183673469388e+00 5.394682514713e-06 
4.285714285714e+00 3.316177970976e-06 
4.387755102041e+00 2.021638370814e-06 
4.489795918367e+00 1.217827723570e-06 
4.591836734694e+00 7.304308979857e-07 
4.693877551020e+00 4.406411901971e-07 
4.795918367347e+00 2.737733762907e-07 
4.897959183673e+00 1.892154812960e-07 
5.000000000000e+00 1.594682675606e-07 
 ZONE T="TIME=1.000000000000e+00"
0.000000000000e+00 1.127851883680e+00 
1.020408163265e-01 1.029207408187e+00 
2.040816326531e-01 9.359550206554e-01 
3.061224489796e-01 8.485367721562e-01 
4.081632653062e-01 7.667860338559e-01 
5.102040816327e-01 6.907231007596e-01 
6.122448979592e-01 6.201355094921e-01 
7.142857142858e-01 5.548611251033e-01 
8.163265306123e-01 4.947904761992e-01 
9.183673469388e-01 4.397463628673e-01 
1.020408163265e+00 3.893826305432e-01 
1.122448979592e+00 3.435230854772e-01 
1.224489795918e+00 3.020090953949e-01 
1.326530612245e+00 2.646112228987e-01 
1.428571428572e+00 2.309186143434e-01 
1.530612244898e+00 2.007329442043e-01 
1.632653061225e+00 1.738959198635e-01 
1.734693877551e+00 1.500396537324e-01 
1.836734693878e+00 1.288681421471e-01 
1.938775510204e+00 1.103398303333e-01 
2.040816326531e+00 9.397190438546e-02 
2.142857142857e+00 7.977625625975e-02 
2.244897959184e+00 6.756413022913e-02 
2.346938775510e+00 5.687177445655e-02 
2.448979591837e+00 4.768184263163e-02 
2.551020408163e+00 3.981554129913e-02 
2.653061224490e+00 3.312109520341e-02 
2.755102040816e+00 2.742561717121e-02 
2.857142857143e+00 2.260806853236e-02 
2.959183673469e+00 1.853548747864e-02 
3.061224489796e+00 1.519299869195e-02 
3.163265306123e+00 1.235063213354e-02 
3.265306122449e+00 9.997019730670e-03 
3.367346938776e+00 8.065235219955e-03 
3.469387755102e+00 6.473567178802e-03 
3.571428571429e+00 5.178274435601e-03 
3.673469387755e+00 4.116153491939e-03 
3.775510204082e+00 3.262387975934e-03 
3.877551020408e+00 2.574305027379e-03 
3.979591836735e+00 2.021225320121e-03 
4.081632653061e+00 1.583799460044e-03 
4.183673469388e+00 1.236637417398e-03 
4.285714285714e+00 9.641574838471e-04 
4.387755102041e+00 7.528199044231e-04 
4.489795918367e+00 5.904077890267e-04 
4.591836734694e+00 4.689469983616e-04 
4.693877551020e+00 3.812183888304e-04 
4.795918367347e+00 3.218324797194e-04 
4.897959183673e+00 2.877276423589e-04 
5.000000000000e+00 2.748724324658e-04 
