 TITLE = "Time curves in points"
 VARIABLES = "TIME " "PRESSURE1" "TEMPERATURE1" "VELOCITY_X1" "VELOCITY_Y1" "VELOCITY_Z1" 
 ZONE T="POINT=POINT16"
0.000000000000e+00 1.750000000000e+06 6.000000000000e+01 0.000000000000e+00 0.000000000000e+00 0.000000000000e+00 
1.000000000000e+00 1.750427043648e+06 5.999981763806e+01 -2.597589250024e-03 -2.634474794906e-03 -7.325013728688e-03 
3.710000000000e+00 1.757923063346e+06 5.999972172133e+01 -2.232911283514e-03 -2.389581460342e-03 -6.471604932816e-03 
1.091860000000e+01 1.782388627064e+06 5.999969872926e+01 -1.401168876970e-03 -1.622026876604e-03 -4.232559204784e-03 
2.973304600000e+01 1.817834811466e+06 5.999965440174e+01 -5.816114877341e-04 -7.359609116609e-04 -1.844638273177e-03 
7.789802776000e+01 1.847224777017e+06 5.999963641595e+01 -2.093953704559e-04 -2.821801301803e-04 -6.881945478053e-04 
1.987921319600e+02 1.864707574291e+06 5.999963600042e+01 -1.106249807780e-04 -1.479895899105e-04 -3.620207927851e-04 
4.961916283600e+02 1.874055392546e+06 5.999963606538e+01 -7.360563637072e-05 -9.839117252557e-05 -2.407570841150e-04 
1.212924414660e+03 1.877397673534e+06 5.999963639594e+01 -4.973378492084e-05 -6.720435909563e-05 -1.636980991891e-04 
2.904413790660e+03 1.873466205094e+06 5.999961893746e+01 -3.317688048492e-05 -4.401668745780e-05 -1.080885462046e-04 
6.811754248660e+03 1.858034079202e+06 5.999956999345e+01 -2.142019342295e-05 -2.594948273550e-05 -6.636507065774e-05 
1.564234368266e+04 1.824534492043e+06 5.999956099663e+01 -1.277099131747e-05 -1.222443733214e-05 -3.505348953312e-05 
3.515794633266e+04 1.768634285268e+06 5.999956055712e+01 -7.462777571477e-06 -2.727914598099e-06 -1.432404653710e-05 
7.731164805266e+04 1.695217643118e+06 5.999956543396e+01 -5.876336858314e-06 3.098288929502e-06 -3.949456951099e-06 
1.662559586927e+05 1.618423250675e+06 5.999957743784e+01 -6.482962101225e-06 6.377794698083e-06 -2.266783645843e-07 
3.494812385927e+05 1.557714992261e+06 5.999970385118e+01 -7.353343713978e-06 8.097758036647e-06 9.384125253736e-07 
7.177640511927e+05 1.525749235126e+06 5.999990311566e+01 -7.791588104824e-06 8.837372636184e-06 1.345180811135e-06 
1.439598363893e+06 1.515746610822e+06 6.000029288726e+01 -7.917161778341e-06 9.050857946323e-06 1.463224284340e-06 
2.818301900893e+06 1.513995760158e+06 6.000114312574e+01 -7.938043095733e-06 9.087141868272e-06 1.483888421120e-06 
5.382690479893e+06 1.513827566360e+06 6.000387481819e+01 -7.940003740298e-06 9.090590196527e-06 1.485884139460e-06 
1.002423380889e+07 1.513818665308e+06 6.001485404782e+01 -7.940107578534e-06 9.090772192750e-06 1.485988942690e-06 
1.819335006789e+07 1.513818406197e+06 6.006244399222e+01 -7.940109466764e-06 9.090777268588e-06 1.485993270619e-06 
3.216253886789e+07 1.513818402875e+06 6.024814784691e+01 -7.940108748812e-06 9.090777207262e-06 1.485994188033e-06 
5.535139227789e+07 1.513818385263e+06 6.083701180602e+01 -7.940111222461e-06 9.090778040446e-06 1.485991883142e-06 
9.268544626789e+07 1.513818403085e+06 6.217186464665e+01 -7.940108724189e-06 9.090777512124e-06 1.485994649418e-06 
1.509265704979e+08 1.513818403643e+06 6.426048426501e+01 -7.940108996272e-06 9.090777320491e-06 1.485994000471e-06 
2.388706680779e+08 1.513818394293e+06 6.661742078365e+01 -7.940110530142e-06 9.090777730467e-06 1.485992422653e-06 
3.672690505779e+08 1.513818401240e+06 6.862957374657e+01 -7.940110298634e-06 9.090777527761e-06 1.485992466250e-06 
5.483107698779e+08 1.513818400787e+06 7.002541943347e+01 -7.940110603332e-06 9.090777611097e-06 1.485992156104e-06 
7.945275080779e+08 1.513818400458e+06 7.086919855115e+01 -7.940110070210e-06 9.090777493945e-06 1.485992738327e-06 
1.117071435178e+09 1.513818402276e+06 7.133495665723e+01 -7.940110527293e-06 9.090777550362e-06 1.485992178232e-06 
1.523476783278e+09 1.513818403975e+06 7.158052468542e+01 -7.940107868510e-06 9.090777191180e-06 1.485995398452e-06 
2.015227254478e+09 1.513818400678e+06 7.170739350598e+01 -7.940109963965e-06 9.090776220141e-06 1.485991103803e-06 
2.585657801078e+09 1.513818403813e+06 7.177214740016e+01 -7.940108812608e-06 9.090777216020e-06 1.485994111418e-06 
3.218835707878e+09 1.513818403157e+06 7.180481851768e+01 -7.940109018885e-06 9.090777170309e-06 1.485993758324e-06 
3.890004289078e+09 1.513818402084e+06 7.182126568382e+01 -7.940109832260e-06 9.090776450178e-06 1.485991610910e-06 
4.567884556078e+09 1.513818405566e+06 7.183005000425e+01 -7.940108536689e-06 9.090777163959e-06 1.485994425326e-06 
