<?xml version="1.0"?>
<!-- Time step: 1 | Time: 5.184000000000e+06 -->
<VTKFile type="UnstructuredGrid" version="0.1" byte_order="LittleEndian">
  <UnstructuredGrid>
    <Piece NumberOfPoints="36" NumberOfCells="25">
      <Points>
        <DataArray type="Float64" NumberOfComponents="3" format="ascii">
          0.000000000000e+00 0.000000000000e+00 0.000000000000e+00
          0.000000000000e+00 1.414213677232e+00 -1.414213447514e+00
          2.000000000000e+00 1.414213677232e+00 -1.414213447514e+00
          2.000000000000e+00 0.000000000000e+00 0.000000000000e+00
          4.000000000000e+00 1.414213677232e+00 -1.414213447514e+00
          4.000000000000e+00 0.000000000000e+00 0.000000000000e+00
          6.000000000000e+00 1.414213677232e+00 -1.414213447514e+00
          6.000000000000e+00 0.000000000000e+00 0.000000000000e+00
          8.000000000000e+00 1.414213677232e+00 -1.414213447514e+00
          8.000000000000e+00 0.000000000000e+00 0.000000000000e+00
          1.000000000000e+01 1.414213677232e+00 -1.414213447514e+00
          1.000000000000e+01 0.000000000000e+00 0.000000000000e+00
          0.000000000000e+00 2.828427354465e+00 -2.828426895027e+00
          2.000000000000e+00 2.828427354465e+00 -2.828426895027e+00
          4.000000000000e+00 2.828427354465e+00 -2.828426895027e+00
          6.000000000000e+00 2.828427354465e+00 -2.828426895027e+00
          8.000000000000e+00 2.828427354465e+00 -2.828426895027e+00
          1.000000000000e+01 2.828427354465e+00 -2.828426895027e+00
          0.000000000000e+00 4.242641031697e+00 -4.242640342541e+00
          2.000000000000e+00 4.242641031697e+00 -4.242640342541e+00
          4.000000000000e+00 4.242641031697e+00 -4.242640342541e+00
          6.000000000000e+00 4.242641031697e+00 -4.242640342541e+00
          8.000000000000e+00 4.242641031697e+00 -4.242640342541e+00
          1.000000000000e+01 4.242641031697e+00 -4.242640342541e+00
          0.000000000000e+00 5.656854708930e+00 -5.656853790055e+00
          2.000000000000e+00 5.656854708930e+00 -5.656853790055e+00
          4.000000000000e+00 5.656854708930e+00 -5.656853790055e+00
          6.000000000000e+00 5.656854708930e+00 -5.656853790055e+00
          8.000000000000e+00 5.656854708930e+00 -5.656853790055e+00
          1.000000000000e+01 5.656854708930e+00 -5.656853790055e+00
          0.000000000000e+00 7.071068386162e+00 -7.071067237568e+00
          2.000000000000e+00 7.071068386162e+00 -7.071067237568e+00
          4.000000000000e+00 7.071068386162e+00 -7.071067237568e+00
          6.000000000000e+00 7.071068386162e+00 -7.071067237568e+00
          8.000000000000e+00 7.071068386162e+00 -7.071067237568e+00
          1.000000000000e+01 7.071068386162e+00 -7.071067237568e+00
        </DataArray>
      </Points>
      <Cells>
        <DataArray type="Int64" Name="connectivity" format="ascii">
          0 1 2 3 
          3 2 4 5 
          5 4 6 7 
          7 6 8 9 
          9 8 10 11 
          1 12 13 2 
          2 13 14 4 
          4 14 15 6 
          6 15 16 8 
          8 16 17 10 
          12 18 19 13 
          13 19 20 14 
          14 20 21 15 
          15 21 22 16 
          16 22 23 17 
          18 24 25 19 
          19 25 26 20 
          20 26 27 21 
          21 27 28 22 
          22 28 29 23 
          24 30 31 25 
          25 31 32 26 
          26 32 33 27 
          27 33 34 28 
          28 34 35 29 
        </DataArray>
        <DataArray type="Int64" Name="offsets" format="ascii">
          4 8 12 16 20 24 28 32 36 40 44 48 52 56 60 64 68 72 76 80 84 88 92 96 100 
        </DataArray>
        <DataArray type="UInt8" Name="types" format="ascii">
          9 9 9 9 9 9 9 9 9 9 9 9 9 9 9 9 9 9 9 9 9 9 9 9 9 
        </DataArray>
      </Cells>
      <PointData Scalars="PRESSURE1">
        <DataArray type="Float64" Name="PRESSURE1" format="ascii">
          2.000000000000e+06 2.025873433920e+06 2.025873433920e+06 2.000000000000e+06 2.025873433920e+06 2.000000000000e+06 2.025873433920e+06 2.000000000000e+06 2.025873433920e+06 2.000000000000e+06 2.025873433920e+06 2.000000000000e+06 2.051746867840e+06 2.051746867840e+06 2.051746867840e+06 2.051746867840e+06 2.051746867840e+06 2.051746867840e+06 2.077620301760e+06 2.077620301760e+06 2.077620301760e+06 2.077620301760e+06 2.077620301760e+06 2.077620301760e+06 2.103493735680e+06 2.103493735680e+06 2.103493735680e+06 2.103493735680e+06 2.103493735680e+06 2.103493735680e+06 2.129367169601e+06 2.129367169601e+06 2.129367169601e+06 2.129367169601e+06 2.129367169601e+06 2.129367169601e+06 
        </DataArray>
        <DataArray type="Float64" Name="NODAL_VELOCITY1" NumberOfComponents="3" format="ascii">
          2.109293005873e-17 -1.414213677225e-03 1.414213447506e-03 2.224574091500e-15 -1.414213677231e-03 1.414213447512e-03 1.311894232129e-15 -1.414213677232e-03 1.414213447513e-03 6.306245430084e-18 -1.414213677223e-03 1.414213447504e-03 -1.046125053376e-15 -1.414213677232e-03 1.414213447513e-03 3.415829610706e-20 -1.414213677223e-03 1.414213447504e-03 -2.481433097676e-15 -1.414213677233e-03 1.414213447514e-03 8.548755790774e-18 -1.414213677225e-03 1.414213447506e-03 -2.436629077788e-15 -1.414213677232e-03 1.414213447514e-03 2.902720390869e-18 -1.414213677226e-03 1.414213447508e-03 -2.401856439734e-15 -1.414213677233e-03 1.414213447514e-03 -2.743315009036e-18 -1.414213677228e-03 1.414213447509e-03 -2.565844037991e-15 -1.414213677235e-03 1.414213447516e-03 -1.083292783532e-15 -1.414213677235e-03 1.414213447517e-03 -9.579733437328e-16 -1.414213677235e-03 1.414213447516e-03 -9.287172471677e-16 -1.414213677235e-03 1.414213447516e-03 -9.256758161035e-16 -1.414213677234e-03 1.414213447516e-03 -2.309122296265e-15 -1.414213677234e-03 1.414213447516e-03 -4.894736580107e-18 -1.414213677237e-03 1.414213447518e-03 1.328232944061e-15 -1.414213677236e-03 1.414213447517e-03 1.338073339033e-16 -1.414213677236e-03 1.414213447517e-03 -2.262798645513e-15 -1.414213677235e-03 1.414213447517e-03 -2.223948716955e-15 -1.414213677235e-03 1.414213447517e-03 -2.316046099779e-15 -1.414213677234e-03 1.414213447516e-03 -9.481155539804e-17 -1.414213677234e-03 1.414213447516e-03 -4.850999965495e-18 -1.414213677234e-03 1.414213447516e-03 1.520025594321e-16 -1.414213677235e-03 1.414213447516e-03 2.992195889662e-16 -1.414213677234e-03 1.414213447516e-03 3.064507252977e-16 -1.414213677234e-03 1.414213447515e-03 2.333578360600e-16 -1.414213677233e-03 1.414213447514e-03 1.684846363425e-17 -1.414213677226e-03 1.414213447508e-03 1.111278566889e-17 -1.414213677226e-03 1.414213447508e-03 9.687830434092e-17 -1.414213677226e-03 1.414213447508e-03 1.160119302824e-16 -1.414213677226e-03 1.414213447508e-03 1.326811087857e-16 -1.414213677227e-03 1.414213447508e-03 2.217178579850e-16 -1.414213677227e-03 1.414213447508e-03 
        </DataArray>
      </PointData>
      <CellData>
        <DataArray type="Int32" Name="MatGroup" format="ascii">
          0 0 0 0 0 0 0 0 0 0 0 0 0 0 0 0 0 0 0 0 0 0 0 0 0 
        </DataArray>
        <DataArray type="Float64" Name="ELEMENT_VELOCITY" NumberOfComponents="3" format="ascii">
          2.716357509295e-16 -1.414213677225e-03 1.414213447506e-03 3.880510727564e-17 -1.414213677223e-03 1.414213447504e-03 -2.716357509295e-16 -1.414213677223e-03 1.414213447504e-03 -2.716357509295e-16 -1.414213677225e-03 1.414213447506e-03 -2.716357509295e-16 -1.414213677227e-03 1.414213447508e-03 1.668619612853e-15 -1.414213677238e-03 1.414213447519e-03 3.880510727564e-16 -1.414213677241e-03 1.414213447522e-03 -2.483526865641e-15 -1.414213677241e-03 1.414213447522e-03 -2.134280900160e-15 -1.414213677240e-03 1.414213447522e-03 -2.405916651090e-15 -1.414213677238e-03 1.414213447520e-03 -2.289501329263e-15 -1.414213677232e-03 1.414213447513e-03 6.596868236860e-16 -1.414213677230e-03 1.414213447511e-03 -2.328306436539e-15 -1.414213677228e-03 1.414213447510e-03 1.552204291026e-16 -1.414213677229e-03 1.414213447510e-03 -2.289501329263e-15 -1.414213677230e-03 1.414213447512e-03 0.000000000000e+00 -1.414213677242e-03 1.414213447523e-03 2.367111543814e-15 -1.414213677242e-03 1.414213447524e-03 -2.095475792885e-15 -1.414213677244e-03 1.414213447525e-03 -1.862645149231e-15 -1.414213677242e-03 1.414213447523e-03 -2.017865578334e-15 -1.414213677240e-03 1.414213447521e-03 -7.761021455129e-17 -1.414213677226e-03 1.414213447508e-03 7.761021455129e-17 -1.414213677226e-03 1.414213447508e-03 2.328306436539e-16 -1.414213677226e-03 1.414213447508e-03 3.492459654808e-16 -1.414213677226e-03 1.414213447508e-03 2.328306436539e-16 -1.414213677227e-03 1.414213447508e-03 
        </DataArray>
      </CellData>
    </Piece>
  </UnstructuredGrid>
</VTKFile>
