VARIABLES  = "X","Y","Z", "PRESSURE1", "VELOCITY_X1", "VELOCITY_Y1", "VELOCITY_Z1"
ZONE T="0.000000000000e+00s", N=36, E=25, F=FEPOINT, ET=QUADRILATERAL
STRANDID=1, SOLUTIONTIME=0.000000000000e+00
0.000000000000e+00 0.000000000000e+00 0.000000000000e+00 0.000000000000e+00 0.000000000000e+00 0.000000000000e+00 0.000000000000e+00 
0.000000000000e+00 1.414213677232e+00 -1.414213447514e+00 0.000000000000e+00 0.000000000000e+00 0.000000000000e+00 0.000000000000e+00 
2.000000000000e+00 1.414213677232e+00 -1.414213447514e+00 0.000000000000e+00 0.000000000000e+00 0.000000000000e+00 0.000000000000e+00 
2.000000000000e+00 0.000000000000e+00 0.000000000000e+00 0.000000000000e+00 0.000000000000e+00 0.000000000000e+00 0.000000000000e+00 
4.000000000000e+00 1.414213677232e+00 -1.414213447514e+00 0.000000000000e+00 0.000000000000e+00 0.000000000000e+00 0.000000000000e+00 
4.000000000000e+00 0.000000000000e+00 0.000000000000e+00 0.000000000000e+00 0.000000000000e+00 0.000000000000e+00 0.000000000000e+00 
6.000000000000e+00 1.414213677232e+00 -1.414213447514e+00 0.000000000000e+00 0.000000000000e+00 0.000000000000e+00 0.000000000000e+00 
6.000000000000e+00 0.000000000000e+00 0.000000000000e+00 0.000000000000e+00 0.000000000000e+00 0.000000000000e+00 0.000000000000e+00 
8.000000000000e+00 1.414213677232e+00 -1.414213447514e+00 0.000000000000e+00 0.000000000000e+00 0.000000000000e+00 0.000000000000e+00 
8.000000000000e+00 0.000000000000e+00 0.000000000000e+00 0.000000000000e+00 0.000000000000e+00 0.000000000000e+00 0.000000000000e+00 
1.000000000000e+01 1.414213677232e+00 -1.414213447514e+00 0.000000000000e+00 0.000000000000e+00 0.000000000000e+00 0.000000000000e+00 
1.000000000000e+01 0.000000000000e+00 0.000000000000e+00 0.000000000000e+00 0.000000000000e+00 0.000000000000e+00 0.000000000000e+00 
0.000000000000e+00 2.828427354465e+00 -2.828426895027e+00 0.000000000000e+00 0.000000000000e+00 0.000000000000e+00 0.000000000000e+00 
2.000000000000e+00 2.828427354465e+00 -2.828426895027e+00 0.000000000000e+00 0.000000000000e+00 0.000000000000e+00 0.000000000000e+00 
4.000000000000e+00 2.828427354465e+00 -2.828426895027e+00 0.000000000000e+00 0.000000000000e+00 0.000000000000e+00 0.000000000000e+00 
6.000000000000e+00 2.828427354465e+00 -2.828426895027e+00 0.000000000000e+00 0.000000000000e+00 0.000000000000e+00 0.000000000000e+00 
8.000000000000e+00 2.828427354465e+00 -2.828426895027e+00 0.000000000000e+00 0.000000000000e+00 0.000000000000e+00 0.000000000000e+00 
1.000000000000e+01 2.828427354465e+00 -2.828426895027e+00 0.000000000000e+00 0.000000000000e+00 0.000000000000e+00 0.000000000000e+00 
0.000000000000e+00 4.242641031697e+00 -4.242640342541e+00 0.000000000000e+00 0.000000000000e+00 0.000000000000e+00 0.000000000000e+00 
2.000000000000e+00 4.242641031697e+00 -4.242640342541e+00 0.000000000000e+00 0.000000000000e+00 0.000000000000e+00 0.000000000000e+00 
4.000000000000e+00 4.242641031697e+00 -4.242640342541e+00 0.000000000000e+00 0.000000000000e+00 0.000000000000e+00 0.000000000000e+00 
6.000000000000e+00 4.242641031697e+00 -4.242640342541e+00 0.000000000000e+00 0.000000000000e+00 0.000000000000e+00 0.000000000000e+00 
8.000000000000e+00 4.242641031697e+00 -4.242640342541e+00 0.000000000000e+00 0.000000000000e+00 0.000000000000e+00 0.000000000000e+00 
1.000000000000e+01 4.242641031697e+00 -4.242640342541e+00 0.000000000000e+00 0.000000000000e+00 0.000000000000e+00 0.000000000000e+00 
0.000000000000e+00 5.656854708930e+00 -5.656853790055e+00 0.000000000000e+00 0.000000000000e+00 0.000000000000e+00 0.000000000000e+00 
2.000000000000e+00 5.656854708930e+00 -5.656853790055e+00 0.000000000000e+00 0.000000000000e+00 0.000000000000e+00 0.000000000000e+00 
4.000000000000e+00 5.656854708930e+00 -5.656853790055e+00 0.000000000000e+00 0.000000000000e+00 0.000000000000e+00 0.000000000000e+00 
6.000000000000e+00 5.656854708930e+00 -5.656853790055e+00 0.000000000000e+00 0.000000000000e+00 0.000000000000e+00 0.000000000000e+00 
8.000000000000e+00 5.656854708930e+00 -5.656853790055e+00 0.000000000000e+00 0.000000000000e+00 0.000000000000e+00 0.000000000000e+00 
1.000000000000e+01 5.656854708930e+00 -5.656853790055e+00 0.000000000000e+00 0.000000000000e+00 0.000000000000e+00 0.000000000000e+00 
0.000000000000e+00 7.071068386162e+00 -7.071067237568e+00 0.000000000000e+00 0.000000000000e+00 0.000000000000e+00 0.000000000000e+00 
2.000000000000e+00 7.071068386162e+00 -7.071067237568e+00 0.000000000000e+00 0.000000000000e+00 0.000000000000e+00 0.000000000000e+00 
4.000000000000e+00 7.071068386162e+00 -7.071067237568e+00 0.000000000000e+00 0.000000000000e+00 0.000000000000e+00 0.000000000000e+00 
6.000000000000e+00 7.071068386162e+00 -7.071067237568e+00 0.000000000000e+00 0.000000000000e+00 0.000000000000e+00 0.000000000000e+00 
8.000000000000e+00 7.071068386162e+00 -7.071067237568e+00 0.000000000000e+00 0.000000000000e+00 0.000000000000e+00 0.000000000000e+00 
1.000000000000e+01 7.071068386162e+00 -7.071067237568e+00 0.000000000000e+00 0.000000000000e+00 0.000000000000e+00 0.000000000000e+00 
1  2  3  4  
4  3  5  6  
6  5  7  8  
8  7  9  10  
10  9  11  12  
2  13  14  3  
3  14  15  5  
5  15  16  7  
7  16  17  9  
9  17  18  11  
13  19  20  14  
14  20  21  15  
15  21  22  16  
16  22  23  17  
17  23  24  18  
19  25  26  20  
20  26  27  21  
21  27  28  22  
22  28  29  23  
23  29  30  24  
25  31  32  26  
26  32  33  27  
27  33  34  28  
28  34  35  29  
29  35  36  30  
VARIABLES  = "X","Y","Z", "PRESSURE1", "VELOCITY_X1", "VELOCITY_Y1", "VELOCITY_Z1"
ZONE T="5.184000000000e+06s", N=36, E=25, F=FEPOINT, ET=QUADRILATERAL
STRANDID=1, SOLUTIONTIME=5.184000000000e+06
0.000000000000e+00 0.000000000000e+00 0.000000000000e+00 2.000000000000e+06 2.109293005873e-17 -1.414213677225e-03 1.414213447506e-03 
0.000000000000e+00 1.414213677232e+00 -1.414213447514e+00 2.025873433920e+06 2.224574091500e-15 -1.414213677231e-03 1.414213447512e-03 
2.000000000000e+00 1.414213677232e+00 -1.414213447514e+00 2.025873433920e+06 1.311894232129e-15 -1.414213677232e-03 1.414213447513e-03 
2.000000000000e+00 0.000000000000e+00 0.000000000000e+00 2.000000000000e+06 6.306245430084e-18 -1.414213677223e-03 1.414213447504e-03 
4.000000000000e+00 1.414213677232e+00 -1.414213447514e+00 2.025873433920e+06 -1.046125053376e-15 -1.414213677232e-03 1.414213447513e-03 
4.000000000000e+00 0.000000000000e+00 0.000000000000e+00 2.000000000000e+06 3.415829610706e-20 -1.414213677223e-03 1.414213447504e-03 
6.000000000000e+00 1.414213677232e+00 -1.414213447514e+00 2.025873433920e+06 -2.481433097676e-15 -1.414213677233e-03 1.414213447514e-03 
6.000000000000e+00 0.000000000000e+00 0.000000000000e+00 2.000000000000e+06 8.548755790774e-18 -1.414213677225e-03 1.414213447506e-03 
8.000000000000e+00 1.414213677232e+00 -1.414213447514e+00 2.025873433920e+06 -2.436629077788e-15 -1.414213677232e-03 1.414213447514e-03 
8.000000000000e+00 0.000000000000e+00 0.000000000000e+00 2.000000000000e+06 2.902720390869e-18 -1.414213677226e-03 1.414213447508e-03 
1.000000000000e+01 1.414213677232e+00 -1.414213447514e+00 2.025873433920e+06 -2.401856439734e-15 -1.414213677233e-03 1.414213447514e-03 
1.000000000000e+01 0.000000000000e+00 0.000000000000e+00 2.000000000000e+06 -2.743315009036e-18 -1.414213677228e-03 1.414213447509e-03 
0.000000000000e+00 2.828427354465e+00 -2.828426895027e+00 2.051746867840e+06 -2.565844037991e-15 -1.414213677235e-03 1.414213447516e-03 
2.000000000000e+00 2.828427354465e+00 -2.828426895027e+00 2.051746867840e+06 -1.083292783532e-15 -1.414213677235e-03 1.414213447517e-03 
4.000000000000e+00 2.828427354465e+00 -2.828426895027e+00 2.051746867840e+06 -9.579733437328e-16 -1.414213677235e-03 1.414213447516e-03 
6.000000000000e+00 2.828427354465e+00 -2.828426895027e+00 2.051746867840e+06 -9.287172471677e-16 -1.414213677235e-03 1.414213447516e-03 
8.000000000000e+00 2.828427354465e+00 -2.828426895027e+00 2.051746867840e+06 -9.256758161035e-16 -1.414213677234e-03 1.414213447516e-03 
1.000000000000e+01 2.828427354465e+00 -2.828426895027e+00 2.051746867840e+06 -2.309122296265e-15 -1.414213677234e-03 1.414213447516e-03 
0.000000000000e+00 4.242641031697e+00 -4.242640342541e+00 2.077620301760e+06 -4.894736580107e-18 -1.414213677237e-03 1.414213447518e-03 
2.000000000000e+00 4.242641031697e+00 -4.242640342541e+00 2.077620301760e+06 1.328232944061e-15 -1.414213677236e-03 1.414213447517e-03 
4.000000000000e+00 4.242641031697e+00 -4.242640342541e+00 2.077620301760e+06 1.338073339033e-16 -1.414213677236e-03 1.414213447517e-03 
6.000000000000e+00 4.242641031697e+00 -4.242640342541e+00 2.077620301760e+06 -2.262798645513e-15 -1.414213677235e-03 1.414213447517e-03 
8.000000000000e+00 4.242641031697e+00 -4.242640342541e+00 2.077620301760e+06 -2.223948716955e-15 -1.414213677235e-03 1.414213447517e-03 
1.000000000000e+01 4.242641031697e+00 -4.242640342541e+00 2.077620301760e+06 -2.316046099779e-15 -1.414213677234e-03 1.414213447516e-03 
0.000000000000e+00 5.656854708930e+00 -5.656853790055e+00 2.103493735680e+06 -9.481155539804e-17 -1.414213677234e-03 1.414213447516e-03 
2.000000000000e+00 5.656854708930e+00 -5.656853790055e+00 2.103493735680e+06 -4.850999965495e-18 -1.414213677234e-03 1.414213447516e-03 
4.000000000000e+00 5.656854708930e+00 -5.656853790055e+00 2.103493735680e+06 1.520025594321e-16 -1.414213677235e-03 1.414213447516e-03 
6.000000000000e+00 5.656854708930e+00 -5.656853790055e+00 2.103493735680e+06 2.992195889662e-16 -1.414213677234e-03 1.414213447516e-03 
8.000000000000e+00 5.656854708930e+00 -5.656853790055e+00 2.103493735680e+06 3.064507252977e-16 -1.414213677234e-03 1.414213447515e-03 
1.000000000000e+01 5.656854708930e+00 -5.656853790055e+00 2.103493735680e+06 2.333578360600e-16 -1.414213677233e-03 1.414213447514e-03 
0.000000000000e+00 7.071068386162e+00 -7.071067237568e+00 2.129367169601e+06 1.684846363425e-17 -1.414213677226e-03 1.414213447508e-03 
2.000000000000e+00 7.071068386162e+00 -7.071067237568e+00 2.129367169601e+06 1.111278566889e-17 -1.414213677226e-03 1.414213447508e-03 
4.000000000000e+00 7.071068386162e+00 -7.071067237568e+00 2.129367169601e+06 9.687830434092e-17 -1.414213677226e-03 1.414213447508e-03 
6.000000000000e+00 7.071068386162e+00 -7.071067237568e+00 2.129367169601e+06 1.160119302824e-16 -1.414213677226e-03 1.414213447508e-03 
8.000000000000e+00 7.071068386162e+00 -7.071067237568e+00 2.129367169601e+06 1.326811087857e-16 -1.414213677227e-03 1.414213447508e-03 
1.000000000000e+01 7.071068386162e+00 -7.071067237568e+00 2.129367169601e+06 2.217178579850e-16 -1.414213677227e-03 1.414213447508e-03 
1  2  3  4  
4  3  5  6  
6  5  7  8  
8  7  9  10  
10  9  11  12  
2  13  14  3  
3  14  15  5  
5  15  16  7  
7  16  17  9  
9  17  18  11  
13  19  20  14  
14  20  21  15  
15  21  22  16  
16  22  23  17  
17  23  24  18  
19  25  26  20  
20  26  27  21  
21  27  28  22  
22  28  29  23  
23  29  30  24  
25  31  32  26  
26  32  33  27  
27  33  34  28  
28  34  35  29  
29  35  36  30  
