VARIABLES = "X","Y","Z","VX","VY","VZ"
ZONE T="0.000000000000e+00s", I=25, F=POINT, C=BLACK
1.000000000000e+00 7.071068386162e-01 -7.071067237568e-01 0.000000000000e+00 0.000000000000e+00 0.000000000000e+00 
3.000000000000e+00 7.071068386162e-01 -7.071067237568e-01 0.000000000000e+00 0.000000000000e+00 0.000000000000e+00 
5.000000000000e+00 7.071068386162e-01 -7.071067237568e-01 0.000000000000e+00 0.000000000000e+00 0.000000000000e+00 
7.000000000000e+00 7.071068386162e-01 -7.071067237568e-01 0.000000000000e+00 0.000000000000e+00 0.000000000000e+00 
9.000000000000e+00 7.071068386162e-01 -7.071067237568e-01 0.000000000000e+00 0.000000000000e+00 0.000000000000e+00 
1.000000000000e+00 2.121320515849e+00 -2.121320171271e+00 0.000000000000e+00 0.000000000000e+00 0.000000000000e+00 
3.000000000000e+00 2.121320515849e+00 -2.121320171271e+00 0.000000000000e+00 0.000000000000e+00 0.000000000000e+00 
5.000000000000e+00 2.121320515849e+00 -2.121320171271e+00 0.000000000000e+00 0.000000000000e+00 0.000000000000e+00 
7.000000000000e+00 2.121320515849e+00 -2.121320171271e+00 0.000000000000e+00 0.000000000000e+00 0.000000000000e+00 
9.000000000000e+00 2.121320515849e+00 -2.121320171271e+00 0.000000000000e+00 0.000000000000e+00 0.000000000000e+00 
1.000000000000e+00 3.535534193081e+00 -3.535533618784e+00 0.000000000000e+00 0.000000000000e+00 0.000000000000e+00 
3.000000000000e+00 3.535534193081e+00 -3.535533618784e+00 0.000000000000e+00 0.000000000000e+00 0.000000000000e+00 
5.000000000000e+00 3.535534193081e+00 -3.535533618784e+00 0.000000000000e+00 0.000000000000e+00 0.000000000000e+00 
7.000000000000e+00 3.535534193081e+00 -3.535533618784e+00 0.000000000000e+00 0.000000000000e+00 0.000000000000e+00 
9.000000000000e+00 3.535534193081e+00 -3.535533618784e+00 0.000000000000e+00 0.000000000000e+00 0.000000000000e+00 
1.000000000000e+00 4.949747870314e+00 -4.949747066298e+00 0.000000000000e+00 0.000000000000e+00 0.000000000000e+00 
3.000000000000e+00 4.949747870314e+00 -4.949747066298e+00 0.000000000000e+00 0.000000000000e+00 0.000000000000e+00 
5.000000000000e+00 4.949747870314e+00 -4.949747066298e+00 0.000000000000e+00 0.000000000000e+00 0.000000000000e+00 
7.000000000000e+00 4.949747870314e+00 -4.949747066298e+00 0.000000000000e+00 0.000000000000e+00 0.000000000000e+00 
9.000000000000e+00 4.949747870314e+00 -4.949747066298e+00 0.000000000000e+00 0.000000000000e+00 0.000000000000e+00 
1.000000000000e+00 6.363961547546e+00 -6.363960513812e+00 0.000000000000e+00 0.000000000000e+00 0.000000000000e+00 
3.000000000000e+00 6.363961547546e+00 -6.363960513812e+00 0.000000000000e+00 0.000000000000e+00 0.000000000000e+00 
5.000000000000e+00 6.363961547546e+00 -6.363960513812e+00 0.000000000000e+00 0.000000000000e+00 0.000000000000e+00 
7.000000000000e+00 6.363961547546e+00 -6.363960513812e+00 0.000000000000e+00 0.000000000000e+00 0.000000000000e+00 
9.000000000000e+00 6.363961547546e+00 -6.363960513812e+00 0.000000000000e+00 0.000000000000e+00 0.000000000000e+00 
VARIABLES = "X","Y","Z","VX","VY","VZ"
ZONE T="5.184000000000e+06s", I=25, F=POINT, C=BLACK
1.000000000000e+00 7.071068386162e-01 -7.071067237568e-01 2.716357509295e-16 -1.414213677225e-03 1.414213447506e-03 
3.000000000000e+00 7.071068386162e-01 -7.071067237568e-01 3.880510727564e-17 -1.414213677223e-03 1.414213447504e-03 
5.000000000000e+00 7.071068386162e-01 -7.071067237568e-01 -2.716357509295e-16 -1.414213677223e-03 1.414213447504e-03 
7.000000000000e+00 7.071068386162e-01 -7.071067237568e-01 -2.716357509295e-16 -1.414213677225e-03 1.414213447506e-03 
9.000000000000e+00 7.071068386162e-01 -7.071067237568e-01 -2.716357509295e-16 -1.414213677227e-03 1.414213447508e-03 
1.000000000000e+00 2.121320515849e+00 -2.121320171271e+00 1.668619612853e-15 -1.414213677238e-03 1.414213447519e-03 
3.000000000000e+00 2.121320515849e+00 -2.121320171271e+00 3.880510727564e-16 -1.414213677241e-03 1.414213447522e-03 
5.000000000000e+00 2.121320515849e+00 -2.121320171271e+00 -2.483526865641e-15 -1.414213677241e-03 1.414213447522e-03 
7.000000000000e+00 2.121320515849e+00 -2.121320171271e+00 -2.134280900160e-15 -1.414213677240e-03 1.414213447522e-03 
9.000000000000e+00 2.121320515849e+00 -2.121320171271e+00 -2.405916651090e-15 -1.414213677238e-03 1.414213447520e-03 
1.000000000000e+00 3.535534193081e+00 -3.535533618784e+00 -2.289501329263e-15 -1.414213677232e-03 1.414213447513e-03 
3.000000000000e+00 3.535534193081e+00 -3.535533618784e+00 6.596868236860e-16 -1.414213677230e-03 1.414213447511e-03 
5.000000000000e+00 3.535534193081e+00 -3.535533618784e+00 -2.328306436539e-15 -1.414213677228e-03 1.414213447510e-03 
7.000000000000e+00 3.535534193081e+00 -3.535533618784e+00 1.552204291026e-16 -1.414213677229e-03 1.414213447510e-03 
9.000000000000e+00 3.535534193081e+00 -3.535533618784e+00 -2.289501329263e-15 -1.414213677230e-03 1.414213447512e-03 
1.000000000000e+00 4.949747870314e+00 -4.949747066298e+00 0.000000000000e+00 -1.414213677242e-03 1.414213447523e-03 
3.000000000000e+00 4.949747870314e+00 -4.949747066298e+00 2.367111543814e-15 -1.414213677242e-03 1.414213447524e-03 
5.000000000000e+00 4.949747870314e+00 -4.949747066298e+00 -2.095475792885e-15 -1.414213677244e-03 1.414213447525e-03 
7.000000000000e+00 4.949747870314e+00 -4.949747066298e+00 -1.862645149231e-15 -1.414213677242e-03 1.414213447523e-03 
9.000000000000e+00 4.949747870314e+00 -4.949747066298e+00 -2.017865578334e-15 -1.414213677240e-03 1.414213447521e-03 
1.000000000000e+00 6.363961547546e+00 -6.363960513812e+00 -7.761021455129e-17 -1.414213677226e-03 1.414213447508e-03 
3.000000000000e+00 6.363961547546e+00 -6.363960513812e+00 7.761021455129e-17 -1.414213677226e-03 1.414213447508e-03 
5.000000000000e+00 6.363961547546e+00 -6.363960513812e+00 2.328306436539e-16 -1.414213677226e-03 1.414213447508e-03 
7.000000000000e+00 6.363961547546e+00 -6.363960513812e+00 3.492459654808e-16 -1.414213677226e-03 1.414213447508e-03 
9.000000000000e+00 6.363961547546e+00 -6.363960513812e+00 2.328306436539e-16 -1.414213677227e-03 1.414213447508e-03 
