 TITLE = "Profiles along polylines"
 VARIABLES = "DIST" "PRESSURE1" "VELOCITY_X1" "VELOCITY_Y1" "VELOCITY_Z1" 
 ZONE T="TIME=0.000000000000e+00"
0.000000000000e+00 0.000000000000e+00 0.000000000000e+00 0.000000000000e+00 0.000000000000e+00 
2.000000000000e+00 0.000000000000e+00 0.000000000000e+00 0.000000000000e+00 0.000000000000e+00 
4.000000000000e+00 0.000000000000e+00 0.000000000000e+00 0.000000000000e+00 0.000000000000e+00 
6.000000000000e+00 0.000000000000e+00 0.000000000000e+00 0.000000000000e+00 0.000000000000e+00 
8.000000000000e+00 0.000000000000e+00 0.000000000000e+00 0.000000000000e+00 0.000000000000e+00 
1.000000000000e+01 0.000000000000e+00 0.000000000000e+00 0.000000000000e+00 0.000000000000e+00 
 TITLE = "Profiles along polylines"
 VARIABLES = "DIST" "PRESSURE1" "VELOCITY_X1" "VELOCITY_Y1" "VELOCITY_Z1" 
 ZONE T="TIME=5.184000000000e+06"
0.000000000000e+00 2.000000000000e+06 2.109293005873e-17 -1.414213677225e-03 1.414213447506e-03 
2.000000000000e+00 2.025873433920e+06 2.224574091500e-15 -1.414213677231e-03 1.414213447512e-03 
4.000000000000e+00 2.051746867840e+06 -2.565844037991e-15 -1.414213677235e-03 1.414213447516e-03 
6.000000000000e+00 2.077620301760e+06 -4.894736580107e-18 -1.414213677237e-03 1.414213447518e-03 
8.000000000000e+00 2.103493735680e+06 -9.481155539804e-17 -1.414213677234e-03 1.414213447516e-03 
1.000000000000e+01 2.129367169601e+06 1.684846363425e-17 -1.414213677226e-03 1.414213447508e-03 
