 TITLE = "Time curves in points"
 VARIABLES = "TIME " "PRESSURE1" "VELOCITY_X1" "VELOCITY_Y1" "VELOCITY_Z1" 
 ZONE T="POINT=POINT18"
0.000000000000e+00 1.235750000000e+06 0.000000000000e+00 0.000000000000e+00 0.000000000000e+00 
1.000000000000e+06 1.693376692629e+06 5.486349109789e-11 4.060506504926e-08 2.260380213403e-10 
2.000000000000e+06 1.707754499664e+06 4.475067412755e-11 2.787855557613e-08 2.007148529773e-10 
3.000000000000e+06 1.710005214894e+06 4.029372010484e-11 2.569437404984e-08 1.877920004276e-10 
4.000000000000e+06 1.710492040371e+06 3.901670857044e-11 2.521781162493e-08 1.845265045092e-10 
5.000000000000e+06 1.710604963480e+06 3.868544936454e-11 2.510708765905e-08 1.837461902640e-10 
