 TITLE = "Time curves in points"
 VARIABLES = "TIME " "CONCENTRATION0" 
 ZONE T="POINT=POINT3"
0.000000000000e+00 1.000000000000e+00 
1.000000000000e-03 9.242424242424e-01 
2.000000000000e-03 8.879598208174e-01 
3.000000000000e-03 8.832419030423e-01 
4.000000000000e-03 8.891563599682e-01 
5.000000000000e-03 8.974777377481e-01 
6.000000000000e-03 9.067693468208e-01 
7.000000000000e-03 9.164130225518e-01 
8.000000000000e-03 9.254946945119e-01 
9.000000000000e-03 9.341845657118e-01 
1.000000000000e-02 9.422879080710e-01 
1.100000000000e-02 9.498706430176e-01 
1.200000000000e-02 9.557442555941e-01 
1.300000000000e-02 9.600634048607e-01 
1.400000000000e-02 9.633016292795e-01 
1.500000000000e-02 9.662393164852e-01 
1.600000000000e-02 9.690792373548e-01 
1.700000000000e-02 9.718532390040e-01 
1.800000000000e-02 9.745491261920e-01 
1.900000000000e-02 9.771465328655e-01 
2.000000000000e-02 9.796242537679e-01 
2.100000000000e-02 9.819620741663e-01 
2.200000000000e-02 9.841468856767e-01 
2.300000000000e-02 9.862756292756e-01 
2.400000000000e-02 9.880771264829e-01 
2.500000000000e-02 9.893139649945e-01 
2.600000000000e-02 9.902430107321e-01 
2.700000000000e-02 9.910243844801e-01 
2.800000000000e-02 9.917427913859e-01 
2.900000000000e-02 9.924276937518e-01 
3.000000000000e-02 9.930860385610e-01 
3.100000000000e-02 9.937167365874e-01 
3.200000000000e-02 9.943165796658e-01 
3.300000000000e-02 9.948823631562e-01 
3.400000000000e-02 9.954164051918e-01 
3.500000000000e-02 9.959246338617e-01 
3.600000000000e-02 9.962905180161e-01 
3.700000000000e-02 9.965100361545e-01 
3.800000000000e-02 9.967052869960e-01 
3.900000000000e-02 9.969019073683e-01 
4.000000000000e-02 9.970999181989e-01 
4.100000000000e-02 9.972975167471e-01 
4.200000000000e-02 9.974924864644e-01 
4.300000000000e-02 9.976826635641e-01 
4.400000000000e-02 9.978661346079e-01 
4.500000000000e-02 9.980438947198e-01 
4.600000000000e-02 9.982176462302e-01 
4.700000000000e-02 9.983884047902e-01 
4.800000000000e-02 9.985571224293e-01 
4.900000000000e-02 9.987434588959e-01 
5.000000000000e-02 9.989347747129e-01 
5.100000000000e-02 9.990266588604e-01 
5.200000000000e-02 9.990884994652e-01 
5.300000000000e-02 9.991446514204e-01 
5.400000000000e-02 9.991995802853e-01 
5.500000000000e-02 9.992533326403e-01 
5.600000000000e-02 9.993058982135e-01 
5.700000000000e-02 9.993574106227e-01 
5.800000000000e-02 9.994080076297e-01 
5.900000000000e-02 9.994577653579e-01 
6.000000000000e-02 9.995072304894e-01 
6.100000000000e-02 9.995456933941e-01 
6.200000000000e-02 9.995646721857e-01 
6.300000000000e-02 9.995690187473e-01 
6.400000000000e-02 9.995797614232e-01 
6.500000000000e-02 9.995989074525e-01 
6.600000000000e-02 9.996207460699e-01 
6.700000000000e-02 9.996432747243e-01 
6.800000000000e-02 9.996657883980e-01 
6.900000000000e-02 9.996880618721e-01 
7.000000000000e-02 9.997100212374e-01 
7.100000000000e-02 9.997316289572e-01 
7.200000000000e-02 9.997534510075e-01 
7.300000000000e-02 9.997754624782e-01 
7.400000000000e-02 9.997983639762e-01 
7.500000000000e-02 9.998242046139e-01 
7.600000000000e-02 9.998494036606e-01 
7.700000000000e-02 9.998613258578e-01 
7.800000000000e-02 9.998688382751e-01 
7.900000000000e-02 9.998748741515e-01 
8.000000000000e-02 9.998804050624e-01 
8.100000000000e-02 9.998857162048e-01 
8.200000000000e-02 9.998908882249e-01 
8.300000000000e-02 9.998960126310e-01 
8.400000000000e-02 9.999011394510e-01 
8.500000000000e-02 9.999067125112e-01 
8.600000000000e-02 9.999129253739e-01 
8.700000000000e-02 9.999180675537e-01 
8.800000000000e-02 9.999208885006e-01 
8.900000000000e-02 9.999220750338e-01 
9.000000000000e-02 9.999227391648e-01 
9.100000000000e-02 9.999233232621e-01 
9.200000000000e-02 9.999239301611e-01 
9.300000000000e-02 9.999245632650e-01 
9.400000000000e-02 9.999252293683e-01 
9.500000000000e-02 9.999259456853e-01 
9.600000000000e-02 9.999266928826e-01 
9.700000000000e-02 9.999262430293e-01 
9.800000000000e-02 9.999254987533e-01 
9.900000000000e-02 9.999244377127e-01 
1.000000000000e-01 9.999231624716e-01 
