 TITLE = "Profiles along polylines"
 VARIABLES = "DIST" "CONCENTRATION0" 
 ZONE T="TIME=0.000000000000e+00"
0.000000000000e+00 0.000000000000e+00 
1.000000000000e-02 0.000000000000e+00 
2.000000000000e-02 0.000000000000e+00 
3.000000000000e-02 0.000000000000e+00 
4.000000000000e-02 0.000000000000e+00 
5.000000000000e-02 0.000000000000e+00 
6.000000000000e-02 0.000000000000e+00 
7.000000000000e-02 0.000000000000e+00 
8.000000000000e-02 0.000000000000e+00 
9.000000000000e-02 0.000000000000e+00 
1.000000000000e-01 1.000000000000e+00 
1.100000000000e-01 1.000000000000e+00 
1.200000000000e-01 1.000000000000e+00 
1.300000000000e-01 1.000000000000e+00 
1.400000000000e-01 1.000000000000e+00 
1.500000000000e-01 1.000000000000e+00 
1.600000000000e-01 1.000000000000e+00 
1.700000000000e-01 1.000000000000e+00 
1.800000000000e-01 1.000000000000e+00 
1.900000000000e-01 1.000000000000e+00 
2.000000000000e-01 1.000000000000e+00 
2.100000000000e-01 1.000000000000e+00 
2.200000000000e-01 1.000000000000e+00 
2.300000000000e-01 1.000000000000e+00 
2.400000000000e-01 1.000000000000e+00 
2.500000000000e-01 1.000000000000e+00 
2.600000000000e-01 1.000000000000e+00 
2.700000000000e-01 1.000000000000e+00 
2.800000000000e-01 1.000000000000e+00 
2.900000000000e-01 1.000000000000e+00 
3.000000000000e-01 1.000000000000e+00 
3.100000000000e-01 0.000000000000e+00 
3.200000000000e-01 0.000000000000e+00 
3.300000000000e-01 0.000000000000e+00 
3.400000000000e-01 0.000000000000e+00 
3.500000000000e-01 0.000000000000e+00 
3.600000000000e-01 0.000000000000e+00 
3.700000000000e-01 0.000000000000e+00 
3.800000000000e-01 0.000000000000e+00 
3.900000000000e-01 0.000000000000e+00 
4.000000000000e-01 0.000000000000e+00 
4.100000000000e-01 0.000000000000e+00 
4.200000000000e-01 0.000000000000e+00 
4.300000000000e-01 0.000000000000e+00 
4.400000000000e-01 0.000000000000e+00 
4.500000000000e-01 0.000000000000e+00 
4.600000000000e-01 0.000000000000e+00 
4.700000000000e-01 0.000000000000e+00 
4.800000000000e-01 0.000000000000e+00 
4.900000000000e-01 0.000000000000e+00 
5.000000000000e-01 0.000000000000e+00 
5.100000000000e-01 0.000000000000e+00 
5.200000000000e-01 0.000000000000e+00 
5.300000000000e-01 0.000000000000e+00 
5.400000000000e-01 0.000000000000e+00 
5.500000000000e-01 0.000000000000e+00 
5.600000000000e-01 0.000000000000e+00 
5.700000000000e-01 0.000000000000e+00 
5.800000000000e-01 0.000000000000e+00 
5.900000000000e-01 0.000000000000e+00 
6.000000000000e-01 0.000000000000e+00 
6.100000000000e-01 0.000000000000e+00 
6.200000000000e-01 0.000000000000e+00 
6.300000000000e-01 0.000000000000e+00 
6.400000000000e-01 0.000000000000e+00 
6.500000000000e-01 0.000000000000e+00 
6.600000000000e-01 0.000000000000e+00 
6.700000000000e-01 0.000000000000e+00 
6.800000000000e-01 0.000000000000e+00 
6.900000000000e-01 0.000000000000e+00 
7.000000000000e-01 0.000000000000e+00 
7.100000000000e-01 0.000000000000e+00 
7.200000000000e-01 0.000000000000e+00 
7.300000000000e-01 0.000000000000e+00 
7.400000000000e-01 0.000000000000e+00 
7.500000000000e-01 0.000000000000e+00 
7.600000000000e-01 0.000000000000e+00 
7.700000000000e-01 0.000000000000e+00 
7.800000000000e-01 0.000000000000e+00 
7.900000000000e-01 0.000000000000e+00 
8.000000000000e-01 0.000000000000e+00 
8.100000000000e-01 0.000000000000e+00 
8.200000000000e-01 0.000000000000e+00 
8.300000000000e-01 0.000000000000e+00 
8.400000000000e-01 0.000000000000e+00 
8.500000000000e-01 0.000000000000e+00 
8.600000000000e-01 0.000000000000e+00 
8.700000000000e-01 0.000000000000e+00 
8.800000000000e-01 0.000000000000e+00 
8.900000000000e-01 0.000000000000e+00 
9.000000000000e-01 0.000000000000e+00 
9.100000000000e-01 0.000000000000e+00 
9.200000000000e-01 0.000000000000e+00 
9.300000000000e-01 0.000000000000e+00 
9.400000000000e-01 0.000000000000e+00 
9.500000000000e-01 0.000000000000e+00 
9.600000000000e-01 0.000000000000e+00 
9.700000000000e-01 0.000000000000e+00 
9.800000000000e-01 0.000000000000e+00 
9.900000000000e-01 0.000000000000e+00 
1.000000000000e+00 0.000000000000e+00 
 ZONE T="TIME=1.000000000000e-02"
0.000000000000e+00 0.000000000000e+00 
1.000000000000e-02 6.198697624198e-10 
2.000000000000e-02 2.245094863690e-08 
3.000000000000e-02 4.084946789022e-07 
4.000000000000e-02 5.213730262255e-06 
5.000000000000e-02 3.271113280598e-05 
6.000000000000e-02 2.902520736951e-04 
7.000000000000e-02 1.810906876389e-03 
8.000000000000e-02 1.108110402651e-02 
9.000000000000e-02 5.771209368042e-02 
1.000000000000e-01 2.680532288912e-01 
1.100000000000e-01 7.490420589754e-01 
1.200000000000e-01 9.334299800604e-01 
1.300000000000e-01 9.835978316767e-01 
1.400000000000e-01 9.960615508110e-01 
1.500000000000e-01 9.991214833460e-01 
1.600000000000e-01 9.998091192772e-01 
1.700000000000e-01 9.999614130395e-01 
1.800000000000e-01 9.999923918465e-01 
1.900000000000e-01 9.999985608334e-01 
2.000000000000e-01 9.999997540838e-01 
2.100000000000e-01 9.999999339674e-01 
2.200000000000e-01 9.999999838301e-01 
2.300000000000e-01 9.999999741639e-01 
2.400000000000e-01 9.999995908266e-01 
2.500000000000e-01 9.999947861391e-01 
2.600000000000e-01 9.999672888556e-01 
2.700000000000e-01 9.997097479692e-01 
2.800000000000e-01 9.981890931071e-01 
2.900000000000e-01 9.889188966093e-01 
3.000000000000e-01 9.422879080710e-01 
3.100000000000e-01 7.319467851087e-01 
3.200000000000e-01 2.509580449277e-01 
3.300000000000e-01 6.656992581188e-02 
3.400000000000e-01 1.640202383182e-02 
3.500000000000e-01 3.938492140629e-03 
3.600000000000e-01 8.786613297246e-04 
3.700000000000e-01 1.908600532399e-04 
3.800000000000e-01 3.855417584593e-05 
3.900000000000e-01 7.642706602282e-06 
4.000000000000e-01 1.407992965623e-06 
4.100000000000e-01 2.591239990118e-07 
4.200000000000e-01 4.410790104970e-08 
4.300000000000e-01 7.776256367753e-09 
4.400000000000e-01 1.247553282336e-09 
4.500000000000e-01 2.209766503405e-10 
4.600000000000e-01 3.435556660104e-11 
4.700000000000e-01 6.294115239308e-12 
4.800000000000e-01 9.948962817274e-13 
4.900000000000e-01 1.823246640568e-13 
5.000000000000e-01 2.959243983018e-14 
5.100000000000e-01 5.219266485827e-15 
5.200000000000e-01 8.471470902223e-16 
5.300000000000e-01 1.399627177010e-16 
5.400000000000e-01 2.279484486119e-17 
5.500000000000e-01 3.478097305920e-18 
5.600000000000e-01 5.047457984419e-19 
5.700000000000e-01 7.060789219226e-20 
5.800000000000e-01 9.598208789235e-21 
5.900000000000e-01 1.274617320533e-21 
6.000000000000e-01 1.659674661654e-22 
6.100000000000e-01 2.124670923350e-23 
6.200000000000e-01 2.679652357471e-24 
6.300000000000e-01 3.334918006051e-25 
6.400000000000e-01 4.100894585976e-26 
6.500000000000e-01 4.988004245195e-27 
6.600000000000e-01 6.006527814252e-28 
6.700000000000e-01 7.166466182200e-29 
6.800000000000e-01 8.477402366275e-30 
6.900000000000e-01 9.948366728347e-31 
7.000000000000e-01 1.158770762688e-31 
7.100000000000e-01 1.340296958976e-32 
7.200000000000e-01 1.540078086000e-33 
7.300000000000e-01 1.758675191084e-34 
7.400000000000e-01 1.996538625810e-35 
7.500000000000e-01 2.254000462179e-36 
7.600000000000e-01 2.531268321402e-37 
7.700000000000e-01 2.828420666016e-38 
7.800000000000e-01 3.145403580190e-39 
7.900000000000e-01 3.482029038646e-40 
8.000000000000e-01 3.837974642057e-41 
8.100000000000e-01 4.212784776250e-42 
8.200000000000e-01 4.605873134283e-43 
8.300000000000e-01 5.016526524524e-44 
8.400000000000e-01 5.443909874392e-45 
8.500000000000e-01 5.887072328299e-46 
8.600000000000e-01 6.344954329651e-47 
8.700000000000e-01 6.816395570343e-48 
8.800000000000e-01 7.300143686914e-49 
8.900000000000e-01 7.794863580387e-50 
9.000000000000e-01 8.299147236428e-51 
9.100000000000e-01 8.811523923912e-52 
9.200000000000e-01 9.330470652843e-53 
9.300000000000e-01 9.854422776868e-54 
9.400000000000e-01 1.038178463100e-54 
9.500000000000e-01 1.091094010153e-55 
9.600000000000e-01 1.144026303233e-56 
9.700000000000e-01 1.196812738158e-57 
9.800000000000e-01 1.249292139854e-58 
9.900000000000e-01 1.302049349995e-59 
1.000000000000e+00 2.465889370517e-60 
 ZONE T="TIME=2.000000000000e-02"
0.000000000000e+00 0.000000000000e+00 
1.000000000000e-02 2.009895726479e-07 
2.000000000000e-02 1.069206434302e-06 
3.000000000000e-02 4.957852599666e-06 
4.000000000000e-02 2.007296389433e-05 
5.000000000000e-02 8.550050779059e-05 
6.000000000000e-02 2.831668968392e-04 
7.000000000000e-02 1.115562419617e-03 
8.000000000000e-02 4.831099602724e-03 
9.000000000000e-02 2.037575918229e-02 
1.000000000000e-01 7.393210429647e-02 
1.100000000000e-01 2.939543736718e-01 
1.200000000000e-01 7.151378060098e-01 
1.300000000000e-01 9.202649950844e-01 
1.400000000000e-01 9.780352010390e-01 
1.500000000000e-01 9.940720195046e-01 
1.600000000000e-01 9.984295728410e-01 
1.700000000000e-01 9.995927060678e-01 
1.800000000000e-01 9.998974123238e-01 
1.900000000000e-01 9.999751168861e-01 
2.000000000000e-01 9.999940254457e-01 
2.100000000000e-01 9.999982056888e-01 
2.200000000000e-01 9.999992521463e-01 
2.300000000000e-01 9.999987135962e-01 
2.400000000000e-01 9.999949598016e-01 
2.500000000000e-01 9.999798831268e-01 
2.600000000000e-01 9.999145148547e-01 
2.700000000000e-01 9.997168387720e-01 
2.800000000000e-01 9.988844371533e-01 
2.900000000000e-01 9.951689033245e-01 
3.000000000000e-01 9.796242537679e-01 
3.100000000000e-01 9.260679242240e-01 
3.200000000000e-01 7.060457282071e-01 
3.300000000000e-01 2.848618127565e-01 
3.400000000000e-01 7.973530536480e-02 
3.500000000000e-01 2.196517505890e-02 
3.600000000000e-01 5.927786199546e-03 
3.700000000000e-01 1.569786902374e-03 
3.800000000000e-01 4.070995095807e-04 
3.900000000000e-01 1.031511491162e-04 
4.000000000000e-01 2.553796400416e-05 
4.100000000000e-01 6.159181409426e-06 
4.200000000000e-01 1.449810343993e-06 
4.300000000000e-01 3.321072694241e-07 
4.400000000000e-01 7.427926187958e-08 
4.500000000000e-01 1.617299504750e-08 
4.600000000000e-01 3.443590979514e-09 
4.700000000000e-01 7.146011689046e-10 
4.800000000000e-01 1.453727685611e-10 
4.900000000000e-01 2.886727461739e-11 
5.000000000000e-01 5.638110718987e-12 
5.100000000000e-01 1.076676947314e-12 
5.200000000000e-01 2.030904113666e-13 
5.300000000000e-01 3.750882797273e-14 
5.400000000000e-01 6.879754703230e-15 
5.500000000000e-01 1.236292242343e-15 
5.600000000000e-01 2.221450959978e-16 
5.700000000000e-01 3.906449435700e-17 
5.800000000000e-01 6.929486551094e-18 
5.900000000000e-01 1.197883695775e-18 
6.000000000000e-01 2.113042835617e-19 
6.100000000000e-01 3.598823245978e-20 
6.200000000000e-01 6.354565734959e-21 
6.300000000000e-01 1.065120494946e-21 
6.400000000000e-01 1.893876925715e-22 
6.500000000000e-01 3.106761072182e-23 
6.600000000000e-01 5.607495580420e-24 
6.700000000000e-01 8.918260056668e-25 
6.800000000000e-01 1.657989100286e-25 
6.900000000000e-01 2.712008904715e-26 
7.000000000000e-01 5.179897288874e-27 
7.100000000000e-01 8.931725504682e-28 
7.200000000000e-01 1.690164395650e-28 
7.300000000000e-01 2.955724809989e-29 
7.400000000000e-01 5.480227996573e-30 
7.500000000000e-01 9.430716175362e-31 
7.600000000000e-01 1.701035867418e-31 
7.700000000000e-01 2.956229443132e-32 
7.800000000000e-01 5.170623050418e-33 
7.900000000000e-01 8.715239167765e-34 
8.000000000000e-01 1.456579516291e-34 
8.100000000000e-01 2.473635702426e-35 
8.200000000000e-01 3.967226996604e-36 
8.300000000000e-01 6.117884181632e-37 
8.400000000000e-01 9.155228454394e-38 
8.500000000000e-01 1.336642235095e-38 
8.600000000000e-01 1.910563750907e-39 
8.700000000000e-01 2.680466007172e-40 
8.800000000000e-01 3.698473976750e-41 
8.900000000000e-01 5.026977382223e-42 
9.000000000000e-01 6.740090153000e-43 
9.100000000000e-01 8.925256928431e-44 
9.200000000000e-01 1.168501089501e-44 
9.300000000000e-01 1.513888545207e-45 
9.400000000000e-01 1.942548029841e-46 
9.500000000000e-01 2.470468052159e-47 
9.600000000000e-01 3.116002515710e-48 
9.700000000000e-01 3.900121966638e-49 
9.800000000000e-01 4.846692529916e-50 
9.900000000000e-01 5.992294877051e-51 
1.000000000000e+00 1.327055462149e-51 
 ZONE T="TIME=3.000000000000e-02"
0.000000000000e+00 0.000000000000e+00 
1.000000000000e-02 3.571075631988e-07 
2.000000000000e-02 1.642140811955e-06 
3.000000000000e-02 4.876879955389e-06 
4.000000000000e-02 1.864716459289e-05 
5.000000000000e-02 5.046634631112e-05 
6.000000000000e-02 1.884388803605e-04 
7.000000000000e-02 5.486902269710e-04 
8.000000000000e-02 2.073940524682e-03 
9.000000000000e-02 6.913899619959e-03 
1.000000000000e-01 2.710624037748e-02 
1.100000000000e-01 8.245792314217e-02 
1.200000000000e-01 3.087801514118e-01 
1.300000000000e-01 6.961160557872e-01 
1.400000000000e-01 9.107708828954e-01 
1.500000000000e-01 9.747216861459e-01 
1.600000000000e-01 9.929492544511e-01 
1.700000000000e-01 9.980354825919e-01 
1.800000000000e-01 9.994621006127e-01 
1.900000000000e-01 9.998552138611e-01 
2.000000000000e-01 9.999623000578e-01 
2.100000000000e-01 9.999895453891e-01 
2.200000000000e-01 9.999951824216e-01 
2.300000000000e-01 9.999962932077e-01 
2.400000000000e-01 9.999936397644e-01 
2.500000000000e-01 9.999815473679e-01 
2.600000000000e-01 9.999496848736e-01 
2.700000000000e-01 9.998116707316e-01 
2.800000000000e-01 9.994513598500e-01 
2.900000000000e-01 9.979259844621e-01 
3.000000000000e-01 9.930860385610e-01 
3.100000000000e-01 9.728936969263e-01 
3.200000000000e-01 9.175419407982e-01 
3.300000000000e-01 6.912194257689e-01 
3.400000000000e-01 3.038851013368e-01 
3.500000000000e-01 8.922714815759e-02 
3.600000000000e-01 2.527794099023e-02 
3.700000000000e-01 7.051002581447e-03 
3.800000000000e-01 1.965179314928e-03 
3.900000000000e-01 5.392261542387e-04 
4.000000000000e-01 1.468433114457e-04 
4.100000000000e-01 3.934837984969e-05 
4.200000000000e-01 1.042061654097e-05 
4.300000000000e-01 2.713262564480e-06 
4.400000000000e-01 6.963137405960e-07 
4.500000000000e-01 1.755658121389e-07 
4.600000000000e-01 4.355969388323e-08 
4.700000000000e-01 1.061425440632e-08 
4.800000000000e-01 2.543061515006e-09 
4.900000000000e-01 5.983921039634e-10 
5.000000000000e-01 1.384180813792e-10 
5.100000000000e-01 3.145631310567e-11 
5.200000000000e-01 7.029198426746e-12 
5.300000000000e-01 1.544101003591e-12 
5.400000000000e-01 3.337109208908e-13 
5.500000000000e-01 7.095682788190e-14 
5.600000000000e-01 1.485539166945e-14 
5.700000000000e-01 3.062918555911e-15 
5.800000000000e-01 6.223972824801e-16 
5.900000000000e-01 1.246973388572e-16 
6.000000000000e-01 2.464883388463e-17 
6.100000000000e-01 4.810000234534e-18 
6.200000000000e-01 9.271475409754e-19 
6.300000000000e-01 1.766715229201e-19 
6.400000000000e-01 3.329356458305e-20 
6.500000000000e-01 6.211858607370e-21 
6.600000000000e-01 1.147535948800e-21 
6.700000000000e-01 2.102237222872e-22 
6.800000000000e-01 3.817123754735e-23 
6.900000000000e-01 6.885442032470e-24 
7.000000000000e-01 1.232067257649e-24 
7.100000000000e-01 2.194735695172e-25 
7.200000000000e-01 3.880624953853e-26 
7.300000000000e-01 6.849369010757e-27 
7.400000000000e-01 1.200394824350e-27 
7.500000000000e-01 2.108137550643e-28 
7.600000000000e-01 3.675808268032e-29 
7.700000000000e-01 6.457252933698e-30 
7.800000000000e-01 1.124834303387e-30 
7.900000000000e-01 1.988131210315e-31 
8.000000000000e-01 3.472184083964e-32 
8.100000000000e-01 6.206856090888e-33 
8.200000000000e-01 1.088355662909e-33 
8.300000000000e-01 1.974104017051e-34 
8.400000000000e-01 3.469862317909e-35 
8.500000000000e-01 6.392518709915e-36 
8.600000000000e-01 1.121143373868e-36 
8.700000000000e-01 2.096801793580e-37 
8.800000000000e-01 3.644401699944e-38 
8.900000000000e-01 6.915409804687e-39 
9.000000000000e-01 1.181236492338e-39 
9.100000000000e-01 2.277046376365e-40 
9.200000000000e-01 3.783155964012e-41 
9.300000000000e-01 7.420164060538e-42 
9.400000000000e-01 1.256873778565e-42 
9.500000000000e-01 2.473426518524e-43 
9.600000000000e-01 4.320988797992e-44 
9.700000000000e-01 8.333337535369e-45 
9.800000000000e-01 1.446156330589e-45 
9.900000000000e-01 2.870371875255e-46 
1.000000000000e+00 1.068327726150e-46 
 ZONE T="TIME=4.000000000000e-02"
0.000000000000e+00 0.000000000000e+00 
1.000000000000e-02 3.551875078350e-07 
2.000000000000e-02 1.015222349374e-06 
3.000000000000e-02 3.934987129122e-06 
4.000000000000e-02 9.546049156263e-06 
5.000000000000e-02 3.362852723792e-05 
6.000000000000e-02 8.342586877850e-05 
7.000000000000e-02 2.952217796673e-04 
8.000000000000e-02 7.941974643773e-04 
9.000000000000e-02 2.900059781935e-03 
1.000000000000e-01 8.557723031645e-03 
1.100000000000e-01 3.202976361043e-02 
1.200000000000e-01 8.886356140280e-02 
1.300000000000e-01 3.204207032278e-01 
1.400000000000e-01 6.842485027410e-01 
1.500000000000e-01 9.010301577251e-01 
1.600000000000e-01 9.718095533680e-01 
1.700000000000e-01 9.920436169504e-01 
1.800000000000e-01 9.977545152786e-01 
1.900000000000e-01 9.993736649900e-01 
2.000000000000e-01 9.998265314913e-01 
2.100000000000e-01 9.999516627996e-01 
2.200000000000e-01 9.999839254088e-01 
2.300000000000e-01 9.999898675891e-01 
2.400000000000e-01 9.999909045590e-01 
2.500000000000e-01 9.999867537502e-01 
2.600000000000e-01 9.999680097606e-01 
2.700000000000e-01 9.999178154549e-01 
2.800000000000e-01 9.997047114508e-01 
2.900000000000e-01 9.992058682760e-01 
3.000000000000e-01 9.970999181989e-01 
3.100000000000e-01 9.914421894974e-01 
3.200000000000e-01 9.679703917026e-01 
3.300000000000e-01 9.111365148295e-01 
3.400000000000e-01 6.795791355282e-01 
3.500000000000e-01 3.157517286042e-01 
3.600000000000e-01 9.896113923850e-02 
3.700000000000e-01 2.819082563273e-02 
3.800000000000e-01 7.961070206458e-03 
3.900000000000e-01 2.251796364721e-03 
4.000000000000e-01 6.318197265709e-04 
4.100000000000e-01 1.768361814221e-04 
4.200000000000e-01 4.905627098403e-05 
4.300000000000e-01 1.352980418714e-05 
4.400000000000e-01 3.694205809526e-06 
4.500000000000e-01 1.000252375591e-06 
4.600000000000e-01 2.677981387070e-07 
4.700000000000e-01 7.096122426088e-08 
4.800000000000e-01 1.857374691439e-08 
4.900000000000e-01 4.805015230536e-09 
5.000000000000e-01 1.226969166137e-09 
5.100000000000e-01 3.093864078429e-10 
5.200000000000e-01 7.696950138114e-11 
5.300000000000e-01 1.889932980266e-11 
5.400000000000e-01 4.577645009096e-12 
5.500000000000e-01 1.094109934909e-12 
5.600000000000e-01 2.579628729895e-13 
5.700000000000e-01 6.001904690261e-14 
5.800000000000e-01 1.377779803159e-14 
5.900000000000e-01 3.121719407343e-15 
6.000000000000e-01 6.980783816167e-16 
6.100000000000e-01 1.541283012136e-16 
6.200000000000e-01 3.359988666554e-17 
6.300000000000e-01 7.235175895544e-18 
6.400000000000e-01 1.539049729764e-18 
6.500000000000e-01 3.235443230244e-19 
6.600000000000e-01 6.722789551346e-20 
6.700000000000e-01 1.381310322143e-20 
6.800000000000e-01 2.806934281992e-21 
6.900000000000e-01 5.643769184609e-22 
7.000000000000e-01 1.123023710655e-22 
7.100000000000e-01 2.212545829198e-23 
7.200000000000e-01 4.316962112948e-24 
7.300000000000e-01 8.345461293012e-25 
7.400000000000e-01 1.598898416297e-25 
7.500000000000e-01 3.037341370069e-26 
7.600000000000e-01 5.722670658329e-27 
7.700000000000e-01 1.069885285489e-27 
7.800000000000e-01 1.985488984675e-28 
7.900000000000e-01 3.659169363949e-29 
8.000000000000e-01 6.700202019961e-30 
8.100000000000e-01 1.219434852921e-30 
8.200000000000e-01 2.207382693884e-31 
8.300000000000e-01 3.975393234254e-32 
8.400000000000e-01 7.129703801470e-33 
8.500000000000e-01 1.273506632065e-33 
8.600000000000e-01 2.268619608733e-34 
8.700000000000e-01 4.029287935336e-35 
8.800000000000e-01 7.149448088565e-36 
8.900000000000e-01 1.266021971156e-36 
9.000000000000e-01 2.243993418856e-37 
9.100000000000e-01 3.971786985629e-38 
9.200000000000e-01 7.050997801528e-39 
9.300000000000e-01 1.249844793704e-39 
9.400000000000e-01 2.226868750061e-40 
9.500000000000e-01 3.957274131701e-41 
9.600000000000e-01 7.084635366359e-42 
9.700000000000e-01 1.259620520291e-42 
9.800000000000e-01 2.239652379256e-43 
9.900000000000e-01 4.185912709839e-44 
1.000000000000e+00 1.791581845478e-44 
 ZONE T="TIME=5.000000000000e-02"
0.000000000000e+00 0.000000000000e+00 
1.000000000000e-02 4.544738264706e-07 
2.000000000000e-02 8.952932277153e-07 
3.000000000000e-02 2.741838313055e-06 
4.000000000000e-02 6.084047534850e-06 
5.000000000000e-02 1.958982228017e-05 
6.000000000000e-02 4.661163920630e-05 
7.000000000000e-02 1.373490241272e-04 
8.000000000000e-02 3.873524702042e-04 
9.000000000000e-02 1.065906194971e-03 
1.000000000000e-01 3.604449349232e-03 
1.100000000000e-01 1.006447427282e-02 
1.200000000000e-01 3.593578839559e-02 
1.300000000000e-01 9.415447169479e-02 
1.400000000000e-01 3.311960845308e-01 
1.500000000000e-01 6.748711427536e-01 
1.600000000000e-01 8.917309466427e-01 
1.700000000000e-01 9.690709346562e-01 
1.800000000000e-01 9.912058146962e-01 
1.900000000000e-01 9.975067676060e-01 
2.000000000000e-01 9.992978543234e-01 
2.100000000000e-01 9.998018434838e-01 
2.200000000000e-01 9.999406811532e-01 
2.300000000000e-01 9.999761871182e-01 
2.400000000000e-01 9.999827742319e-01 
2.500000000000e-01 9.999831079680e-01 
2.600000000000e-01 9.999780555199e-01 
2.700000000000e-01 9.999533732552e-01 
2.800000000000e-01 9.998641878258e-01 
2.900000000000e-01 9.996141166889e-01 
3.000000000000e-01 9.989347747129e-01 
3.100000000000e-01 9.963950370708e-01 
3.200000000000e-01 9.899353326443e-01 
3.300000000000e-01 9.640651983411e-01 
3.400000000000e-01 9.058465446684e-01 
3.500000000000e-01 6.688053388108e-01 
3.600000000000e-01 3.251219704469e-01 
3.700000000000e-01 1.082574055375e-01 
3.800000000000e-01 3.093641538059e-02 
3.900000000000e-01 8.806978305877e-03 
4.000000000000e-01 2.505366213865e-03 
4.100000000000e-01 7.102856035677e-04 
4.200000000000e-01 2.010377692271e-04 
4.300000000000e-01 5.666450937583e-05 
4.400000000000e-01 1.591964908945e-05 
4.500000000000e-01 4.448795795401e-06 
4.600000000000e-01 1.237095427245e-06 
4.700000000000e-01 3.417459983839e-07 
4.800000000000e-01 9.379341969741e-08 
4.900000000000e-01 2.554214962443e-08 
5.000000000000e-01 6.901143597129e-09 
5.100000000000e-01 1.848174264224e-09 
5.200000000000e-01 4.905302104797e-10 
5.300000000000e-01 1.289374638829e-10 
5.400000000000e-01 3.356086954966e-11 
5.500000000000e-01 8.645838288288e-12 
5.600000000000e-01 2.204299751958e-12 
5.700000000000e-01 5.559991950516e-13 
5.800000000000e-01 1.387427757172e-13 
5.900000000000e-01 3.424404702909e-14 
6.000000000000e-01 8.360125969150e-15 
6.100000000000e-01 2.018561275675e-15 
6.200000000000e-01 4.820653482206e-16 
6.300000000000e-01 1.138637531164e-16 
6.400000000000e-01 2.660295505687e-17 
6.500000000000e-01 6.148148902314e-18 
6.600000000000e-01 1.405694551514e-18 
6.700000000000e-01 3.179754320039e-19 
6.800000000000e-01 7.117451134932e-20 
6.900000000000e-01 1.576601180544e-20 
7.000000000000e-01 3.456737006898e-21 
7.100000000000e-01 7.502515542396e-22 
7.200000000000e-01 1.612245730626e-22 
7.300000000000e-01 3.430809536974e-23 
7.400000000000e-01 7.230972163041e-24 
7.500000000000e-01 1.509715918948e-24 
7.600000000000e-01 3.123138472417e-25 
7.700000000000e-01 6.402558937473e-26 
7.800000000000e-01 1.301026968376e-26 
7.900000000000e-01 2.620972447690e-27 
8.000000000000e-01 5.235898123829e-28 
8.100000000000e-01 1.037407253462e-28 
8.200000000000e-01 2.039160815037e-29 
8.300000000000e-01 3.977208055736e-30 
8.400000000000e-01 7.699299036547e-31 
8.500000000000e-01 1.479636626197e-31 
8.600000000000e-01 2.823707605779e-32 
8.700000000000e-01 5.352245173505e-33 
8.800000000000e-01 1.007962365707e-33 
8.900000000000e-01 1.886443233518e-34 
9.000000000000e-01 3.509845798303e-35 
9.100000000000e-01 6.493629892621e-36 
9.200000000000e-01 1.195120642550e-36 
9.300000000000e-01 2.188698191340e-37 
9.400000000000e-01 3.990222497843e-38 
9.500000000000e-01 7.244220608409e-39 
9.600000000000e-01 1.310127166009e-39 
9.700000000000e-01 2.356760046327e-40 
9.800000000000e-01 4.181103011319e-41 
9.900000000000e-01 7.841180520567e-42 
1.000000000000e+00 3.329704590274e-42 
 ZONE T="TIME=6.000000000000e-02"
0.000000000000e+00 0.000000000000e+00 
1.000000000000e-02 1.490674553524e-07 
2.000000000000e-02 7.584260692168e-07 
3.000000000000e-02 1.540961524908e-06 
4.000000000000e-02 4.777096696114e-06 
5.000000000000e-02 1.013803840221e-05 
6.000000000000e-02 3.234124206476e-05 
7.000000000000e-02 6.955784624357e-05 
8.000000000000e-02 2.213010911642e-04 
9.000000000000e-02 4.955954338423e-04 
1.000000000000e-01 1.601547503053e-03 
1.100000000000e-01 4.035539714412e-03 
1.200000000000e-01 1.262066605068e-02 
1.300000000000e-01 3.789354010281e-02 
1.400000000000e-01 9.923138214781e-02 
1.500000000000e-01 3.409391794945e-01 
1.600000000000e-01 6.672029550331e-01 
1.700000000000e-01 8.828594359290e-01 
1.800000000000e-01 9.662858934922e-01 
1.900000000000e-01 9.903687096405e-01 
2.000000000000e-01 9.972648425805e-01 
2.100000000000e-01 9.992234491003e-01 
2.200000000000e-01 9.997764581639e-01 
2.300000000000e-01 9.999283228326e-01 
2.400000000000e-01 9.999667106819e-01 
2.500000000000e-01 9.999739277531e-01 
2.600000000000e-01 9.999732252996e-01 
2.700000000000e-01 9.999645290539e-01 
2.800000000000e-01 9.999288945851e-01 
2.900000000000e-01 9.997824255578e-01 
3.000000000000e-01 9.995072304894e-01 
3.100000000000e-01 9.983989635714e-01 
3.200000000000e-01 9.959645868500e-01 
3.300000000000e-01 9.873790636259e-01 
3.400000000000e-01 9.621073963559e-01 
3.500000000000e-01 9.007694850820e-01 
3.600000000000e-01 6.590632034433e-01 
3.700000000000e-01 3.327873090209e-01 
3.800000000000e-01 1.171309668844e-01 
3.900000000000e-01 3.373333485298e-02 
4.000000000000e-01 9.652853645129e-03 
4.100000000000e-01 2.751745392767e-03 
4.200000000000e-01 7.848786630838e-04 
4.300000000000e-01 2.232184590614e-04 
4.400000000000e-01 6.342318124127e-05 
4.500000000000e-01 1.797133749522e-05 
4.600000000000e-01 5.081227175911e-06 
4.700000000000e-01 1.431985260697e-06 
4.800000000000e-01 4.021952658324e-07 
4.900000000000e-01 1.124937582025e-07 
5.000000000000e-01 3.132107937941e-08 
5.100000000000e-01 8.675573348178e-09 
5.200000000000e-01 2.389458751458e-09 
5.300000000000e-01 6.540692411957e-10 
5.400000000000e-01 1.778539604792e-10 
5.500000000000e-01 4.802209363109e-11 
5.600000000000e-01 1.286992380990e-11 
5.700000000000e-01 3.422372512308e-12 
5.800000000000e-01 9.027123608946e-13 
5.900000000000e-01 2.361218845851e-13 
6.000000000000e-01 6.123190289198e-14 
6.100000000000e-01 1.573980856248e-14 
6.200000000000e-01 4.009810012369e-15 
6.300000000000e-01 1.012287231559e-15 
6.400000000000e-01 2.532152636408e-16 
6.500000000000e-01 6.275642119249e-17 
6.600000000000e-01 1.540928338013e-17 
6.700000000000e-01 3.748500693012e-18 
6.800000000000e-01 9.033920935163e-19 
6.900000000000e-01 2.156992431960e-19 
7.000000000000e-01 5.102491326028e-20 
7.100000000000e-01 1.195912715568e-20 
7.200000000000e-01 2.777280749922e-21 
7.300000000000e-01 6.391091483011e-22 
7.400000000000e-01 1.457451502630e-22 
7.500000000000e-01 3.293946283339e-23 
7.600000000000e-01 7.378676466602e-24 
7.700000000000e-01 1.638421239413e-24 
7.800000000000e-01 3.606615664761e-25 
7.900000000000e-01 7.871397935462e-26 
8.000000000000e-01 1.703445598868e-26 
8.100000000000e-01 3.655810164861e-27 
8.200000000000e-01 7.781591265571e-28 
8.300000000000e-01 1.643011585145e-28 
8.400000000000e-01 3.441548015611e-29 
8.500000000000e-01 7.152685383958e-30 
8.600000000000e-01 1.475172358401e-30 
8.700000000000e-01 3.019525836850e-31 
8.800000000000e-01 6.135018043083e-32 
8.900000000000e-01 1.237488005134e-32 
9.000000000000e-01 2.478423321251e-33 
9.100000000000e-01 4.929348531553e-34 
9.200000000000e-01 9.737492652574e-35 
9.300000000000e-01 1.910832520992e-35 
9.400000000000e-01 3.725504670273e-36 
9.500000000000e-01 7.217991216557e-37 
9.600000000000e-01 1.389604030701e-37 
9.700000000000e-01 2.652139012231e-38 
9.800000000000e-01 4.970575215905e-39 
9.900000000000e-01 9.950196101942e-40 
1.000000000000e+00 4.514669164224e-40 
 ZONE T="TIME=7.000000000000e-02"
0.000000000000e+00 0.000000000000e+00 
1.000000000000e-02 1.035405585503e-07 
2.000000000000e-02 2.754459000800e-07 
3.000000000000e-02 1.052576254756e-06 
4.000000000000e-02 2.175631721880e-06 
5.000000000000e-02 6.838676375712e-06 
6.000000000000e-02 1.420027343182e-05 
7.000000000000e-02 4.476940195338e-05 
8.000000000000e-02 9.397734352363e-05 
9.000000000000e-02 2.961167555057e-04 
1.000000000000e-01 6.409635692263e-04 
1.100000000000e-01 2.042198199338e-03 
1.200000000000e-01 4.646705447191e-03 
1.300000000000e-01 1.510490906238e-02 
1.400000000000e-01 3.936382471997e-02 
1.500000000000e-01 1.073794161934e-01 
1.600000000000e-01 3.466641533112e-01 
1.700000000000e-01 6.606377819078e-01 
1.800000000000e-01 8.746419540479e-01 
1.900000000000e-01 9.632085378639e-01 
2.000000000000e-01 9.894814170319e-01 
2.100000000000e-01 9.970106134241e-01 
2.200000000000e-01 9.991458196164e-01 
2.300000000000e-01 9.997489256916e-01 
2.400000000000e-01 9.999140624668e-01 
2.500000000000e-01 9.999555168694e-01 
2.600000000000e-01 9.999634256547e-01 
2.700000000000e-01 9.999621627497e-01 
2.800000000000e-01 9.999508541302e-01 
2.900000000000e-01 9.999043589162e-01 
3.000000000000e-01 9.997100212374e-01 
3.100000000000e-01 9.993636245351e-01 
3.200000000000e-01 9.979588948618e-01 
3.300000000000e-01 9.953538692341e-01 
3.400000000000e-01 9.848943979656e-01 
3.500000000000e-01 9.606369323870e-01 
3.600000000000e-01 8.926208447580e-01 
3.700000000000e-01 6.533398414434e-01 
3.800000000000e-01 3.393487009319e-01 
3.900000000000e-01 1.253535801736e-01 
4.000000000000e-01 3.683126490136e-02 
4.100000000000e-01 1.054565457065e-02 
4.200000000000e-01 3.012010200801e-03 
4.300000000000e-01 8.606873937013e-04 
4.400000000000e-01 2.453077056567e-04 
4.500000000000e-01 6.996893981095e-05 
4.600000000000e-01 1.991108183620e-05 
4.700000000000e-01 5.663144893191e-06 
4.800000000000e-01 1.606990831472e-06 
4.900000000000e-01 4.553128291397e-07 
5.000000000000e-01 1.286578436812e-07 
5.100000000000e-01 3.626486053152e-08 
5.200000000000e-01 1.018805028915e-08 