 TITLE = "Time curves in points"
 VARIABLES = "TIME " "CONCENTRATION0" 
 ZONE T="POINT=POINT2"
0.000000000000e+00 1.000000000000e+00 
1.000000000000e-03 8.402203856749e-01 
2.000000000000e-03 7.305532373570e-01 
3.000000000000e-03 6.533340359964e-01 
4.000000000000e-03 5.869683895658e-01 
5.000000000000e-03 5.239636618300e-01 
6.000000000000e-03 4.628570196950e-01 
7.000000000000e-03 4.072811930547e-01 
8.000000000000e-03 3.564357279208e-01 
9.000000000000e-03 3.101403967441e-01 
1.000000000000e-02 2.680532288912e-01 
1.100000000000e-02 2.300048638944e-01 
1.200000000000e-02 1.947607327474e-01 
1.300000000000e-02 1.627269580784e-01 
1.400000000000e-02 1.433199629943e-01 
1.500000000000e-02 1.285477287603e-01 
1.600000000000e-02 1.157620642995e-01 
1.700000000000e-02 1.041004952074e-01 
1.800000000000e-02 9.328864756181e-02 
1.900000000000e-02 8.324129106548e-02 
2.000000000000e-02 7.393210429647e-02 
2.100000000000e-02 6.535273196090e-02 
2.200000000000e-02 5.810938782703e-02 
2.300000000000e-02 5.233177878908e-02 
2.400000000000e-02 4.747094888394e-02 
2.500000000000e-02 4.313564167484e-02 
2.600000000000e-02 3.943863813634e-02 
2.700000000000e-02 3.609910745569e-02 
2.800000000000e-02 3.294612193845e-02 
2.900000000000e-02 2.994792827585e-02 
3.000000000000e-02 2.710624037748e-02 
3.100000000000e-02 2.442952227772e-02 
3.200000000000e-02 2.192556212720e-02 
3.300000000000e-02 1.959963142906e-02 
3.400000000000e-02 1.743221289941e-02 
3.500000000000e-02 1.539303554345e-02 
3.600000000000e-02 1.334981950701e-02 
3.700000000000e-02 1.135209474579e-02 
3.800000000000e-02 1.020266927113e-02 
3.900000000000e-02 9.329690938904e-03 
4.000000000000e-02 8.557723031645e-03 
4.100000000000e-02 7.838497150334e-03 
4.200000000000e-02 7.160102151162e-03 
4.300000000000e-02 6.520781489642e-03 
4.400000000000e-02 5.921233708424e-03 
4.500000000000e-02 5.357564835267e-03 
4.600000000000e-02 4.824029772608e-03 
4.700000000000e-02 4.325151017315e-03 
4.800000000000e-02 3.963387936837e-03 
4.900000000000e-02 3.737703313509e-03 
5.000000000000e-02 3.604449349232e-03 
5.100000000000e-02 3.402432177756e-03 
5.200000000000e-02 3.178372258866e-03 
5.300000000000e-02 2.955871745871e-03 
5.400000000000e-02 2.741022361201e-03 
5.500000000000e-02 2.535721099933e-03 
5.600000000000e-02 2.338321409105e-03 
5.700000000000e-02 2.147208032667e-03 
5.800000000000e-02 1.961383668810e-03 
5.900000000000e-02 1.780355471461e-03 
6.000000000000e-02 1.601547503053e-03 
6.100000000000e-02 1.409661747277e-03 
6.200000000000e-02 1.200451291517e-03 
6.300000000000e-02 1.061643512170e-03 
6.400000000000e-02 9.839180075843e-04 
6.500000000000e-02 9.226267549788e-04 
6.600000000000e-02 8.639454010563e-04 
6.700000000000e-02 8.062480335373e-04 
6.800000000000e-02 7.498190584311e-04 
6.900000000000e-02 6.947394231025e-04 
7.000000000000e-02 6.409635692263e-04 
7.100000000000e-02 5.884830016105e-04 
7.200000000000e-02 5.362581132862e-04 
7.300000000000e-02 4.954580091764e-04 
7.400000000000e-02 4.726896404232e-04 
7.500000000000e-02 4.630421041557e-04 
7.600000000000e-02 4.600767191442e-04 
7.700000000000e-02 4.421337410331e-04 
7.800000000000e-02 4.177968328866e-04 
7.900000000000e-02 3.924588013203e-04 
8.000000000000e-02 3.677260205075e-04 
8.100000000000e-02 3.436182413142e-04 
8.200000000000e-02 3.200009610400e-04 
8.300000000000e-02 2.964993718320e-04 
8.400000000000e-02 2.729773677456e-04 
8.500000000000e-02 2.494341674895e-04 
8.600000000000e-02 2.252637685136e-04 
8.700000000000e-02 1.982665549328e-04 
8.800000000000e-02 1.691682992494e-04 
8.900000000000e-02 1.498823532382e-04 
9.000000000000e-02 1.400753488969e-04 
9.100000000000e-02 1.330218278747e-04 
9.200000000000e-02 1.258497816520e-04 
9.300000000000e-02 1.184183407648e-04 
9.400000000000e-02 1.109404102480e-04 
9.500000000000e-02 1.035010454939e-04 
9.600000000000e-02 9.611703198371e-05 
9.700000000000e-02 8.872525806641e-05 
9.800000000000e-02 8.124552576474e-05 
9.900000000000e-02 7.617141114812e-05 
1.000000000000e-01 7.356323187750e-05 
