<?xml version="1.0"?>
<!-- Time step: 1 | Time: 1.000000000000e+00 -->
<VTKFile type="UnstructuredGrid" version="0.1" byte_order="LittleEndian">
  <UnstructuredGrid>
    <Piece NumberOfPoints="36" NumberOfCells="8">
      <Points>
        <DataArray type="Float64" NumberOfComponents="3" format="ascii">
          0.000000000000e+00 0.000000000000e+00 0.000000000000e+00
          0.000000000000e+00 1.000000000000e-02 0.000000000000e+00
          7.500000000000e-03 1.000000000000e-02 0.000000000000e+00
          7.500000000000e-03 0.000000000000e+00 0.000000000000e+00
          1.500000000000e-02 1.000000000000e-02 0.000000000000e+00
          1.500000000000e-02 0.000000000000e+00 0.000000000000e+00
          2.250000000000e-02 1.000000000000e-02 0.000000000000e+00
          2.250000000000e-02 0.000000000000e+00 0.000000000000e+00
          3.000000000000e-02 1.000000000000e-02 0.000000000000e+00
          3.000000000000e-02 0.000000000000e+00 0.000000000000e+00
          3.750000000000e-02 1.000000000000e-02 0.000000000000e+00
          3.750000000000e-02 0.000000000000e+00 0.000000000000e+00
          4.500000000000e-02 1.000000000000e-02 0.000000000000e+00
          4.500000000000e-02 0.000000000000e+00 0.000000000000e+00
          5.250000000000e-02 1.000000000000e-02 0.000000000000e+00
          5.250000000000e-02 0.000000000000e+00 0.000000000000e+00
          6.000000000000e-02 1.000000000000e-02 0.000000000000e+00
          6.000000000000e-02 0.000000000000e+00 0.000000000000e+00
          0.000000000000e+00 0.000000000000e+00 1.000000000000e-02
          0.000000000000e+00 1.000000000000e-02 1.000000000000e-02
          7.500000000000e-03 1.000000000000e-02 1.000000000000e-02
          7.500000000000e-03 0.000000000000e+00 1.000000000000e-02
          1.500000000000e-02 1.000000000000e-02 1.000000000000e-02
          1.500000000000e-02 0.000000000000e+00 1.000000000000e-02
          2.250000000000e-02 1.000000000000e-02 1.000000000000e-02
          2.250000000000e-02 0.000000000000e+00 1.000000000000e-02
          3.000000000000e-02 1.000000000000e-02 1.000000000000e-02
          3.000000000000e-02 0.000000000000e+00 1.000000000000e-02
          3.750000000000e-02 1.000000000000e-02 1.000000000000e-02
          3.750000000000e-02 0.000000000000e+00 1.000000000000e-02
          4.500000000000e-02 1.000000000000e-02 1.000000000000e-02
          4.500000000000e-02 0.000000000000e+00 1.000000000000e-02
          5.250000000000e-02 1.000000000000e-02 1.000000000000e-02
          5.250000000000e-02 0.000000000000e+00 1.000000000000e-02
          6.000000000000e-02 1.000000000000e-02 1.000000000000e-02
          6.000000000000e-02 0.000000000000e+00 1.000000000000e-02
        </DataArray>
      </Points>
      <Cells>
        <DataArray type="Int64" Name="connectivity" format="ascii">
          0 1 2 3 18 19 20 21 
          3 2 4 5 21 20 22 23 
          5 4 6 7 23 22 24 25 
          7 6 8 9 25 24 26 27 
          9 8 10 11 27 26 28 29 
          11 10 12 13 29 28 30 31 
          13 12 14 15 31 30 32 33 
          15 14 16 17 33 32 34 35 
        </DataArray>
        <DataArray type="Int64" Name="offsets" format="ascii">
          8 16 24 32 40 48 56 64 
        </DataArray>
        <DataArray type="UInt8" Name="types" format="ascii">
          12 12 12 12 12 12 12 12 
        </DataArray>
      </Cells>
      <PointData Scalars="TEMPERATURE1">
        <DataArray type="Float64" Name="TEMPERATURE1" format="ascii">
          1.502932330827e+02 1.502932330827e+02 1.498914473684e+02 1.498914473684e+02 1.486860902256e+02 1.486860902256e+02 1.466771616541e+02 1.466771616541e+02 1.438646616541e+02 1.438646616541e+02 1.402485902256e+02 1.402485902256e+02 1.358289473684e+02 1.358289473684e+02 1.306057330827e+02 1.306057330827e+02 1.245789473684e+02 1.245789473684e+02 1.502932330827e+02 1.502932330827e+02 1.498914473684e+02 1.498914473684e+02 1.486860902256e+02 1.486860902256e+02 1.466771616541e+02 1.466771616541e+02 1.438646616541e+02 1.438646616541e+02 1.402485902256e+02 1.402485902256e+02 1.358289473684e+02 1.358289473684e+02 1.306057330827e+02 1.306057330827e+02 1.245789473684e+02 1.245789473684e+02 
        </DataArray>
      </PointData>
      <CellData>
        <DataArray type="Int32" Name="MatGroup" format="ascii">
          0 0 0 0 1 1 1 1 
        </DataArray>
      </CellData>
    </Piece>
  </UnstructuredGrid>
</VTKFile>
