 TITLE = "Profiles along polylines"
 VARIABLES = "DIST" "TEMPERATURE1" 
 ZONE T="TIME=0.000000000000e+00"
0.000000000000e+00 1.000000000000e-02 
0.000000000000e+00 1.000000000000e-02 
0.000000000000e+00 0.000000000000e+00 
7.500000000000e-03 1.750000000000e-02 
7.500000000000e-03 1.750000000000e-02 
7.500000000000e-03 7.500000000000e-03 
1.500000000000e-02 2.500000000000e-02 
1.500000000000e-02 2.500000000000e-02 
1.500000000000e-02 1.500000000000e-02 
2.250000000000e-02 2.250000000000e-02 
2.250000000000e-02 3.250000000000e-02 
2.250000000000e-02 3.250000000000e-02 
3.000000000000e-02 3.000000000000e-02 
3.000000000000e-02 3.000000000000e-02 
3.000000000000e-02 3.000000000000e-02 
3.750000000000e-02 3.750000000000e-02 
3.750000000000e-02 3.750000000000e-02 
3.750000000000e-02 3.750000000000e-02 
4.500000000000e-02 4.500000000000e-02 
4.500000000000e-02 4.500000000000e-02 
4.500000000000e-02 4.500000000000e-02 
5.250000000000e-02 5.250000000000e-02 
5.250000000000e-02 5.250000000000e-02 
5.250000000000e-02 5.250000000000e-02 
6.000000000000e-02 6.000000000000e-02 
6.000000000000e-02 6.000000000000e-02 
6.000000000000e-02 6.000000000000e-02 
 TITLE = "Profiles along polylines"
 VARIABLES = "DIST" "TEMPERATURE1" 
 ZONE T="TIME=1.000000000000e+00"
0.000000000000e+00 1.502932330827e+02 
0.000000000000e+00 1.502932330827e+02 
0.000000000000e+00 1.502932330827e+02 
7.500000000000e-03 1.498914473684e+02 
7.500000000000e-03 1.498914473684e+02 
7.500000000000e-03 1.498914473684e+02 
1.500000000000e-02 1.486860902256e+02 
1.500000000000e-02 1.486860902256e+02 
1.500000000000e-02 1.486860902256e+02 
2.250000000000e-02 1.466771616541e+02 
2.250000000000e-02 1.466771616541e+02 
2.250000000000e-02 1.466771616541e+02 
3.000000000000e-02 1.438646616541e+02 
3.000000000000e-02 1.438646616541e+02 
3.000000000000e-02 1.438646616541e+02 
3.750000000000e-02 1.402485902256e+02 
3.750000000000e-02 1.402485902256e+02 
3.750000000000e-02 1.402485902256e+02 
4.500000000000e-02 1.358289473684e+02 
4.500000000000e-02 1.358289473684e+02 
4.500000000000e-02 1.358289473684e+02 
5.250000000000e-02 1.306057330827e+02 
5.250000000000e-02 1.306057330827e+02 
5.250000000000e-02 1.306057330827e+02 
6.000000000000e-02 1.245789473684e+02 
6.000000000000e-02 1.245789473684e+02 
6.000000000000e-02 1.245789473684e+02 
