 TITLE = "Time curves in points"
 VARIABLES = "TIME " "TEMPERATURE1" 
 ZONE T="POINT=POINT5"
0.000000000000e+00 0.000000000000e+00 
3.906250000000e+05 3.690166837986e-14 
7.812500000000e+05 7.431852139936e-13 
1.171875000000e+06 7.532677142295e-12 
1.562500000000e+06 5.132877837022e-11 
1.953125000000e+06 2.650274510447e-10 
2.343750000000e+06 1.108026399534e-09 
2.734375000000e+06 3.913944325235e-09 
3.125000000000e+06 1.203432515522e-08 
3.515625000000e+06 3.292888900867e-08 
3.906250000000e+06 8.156678024646e-08 
4.296875000000e+06 1.854204332982e-07 
4.687500000000e+06 3.911506598104e-07 
5.078125000000e+06 7.728295044196e-07 
5.468750000000e+06 1.441281711048e-06 
5.859375000000e+06 2.553906219060e-06 
6.250000000000e+06 4.324211361217e-06 
6.640625000000e+06 7.030281218604e-06 
7.031250000000e+06 1.102147939711e-05 
7.421875000000e+06 1.672286432970e-05 
7.812500000000e+06 2.463700173623e-05 
8.203125000000e+06 3.534307987684e-05 
8.593750000000e+06 4.949343318368e-05 
8.984375000000e+06 6.780774094676e-05 
9.375000000000e+06 9.106528105633e-05 
9.765625000000e+06 1.200956836742e-04 
1.015625000000e+07 1.557686511788e-04 
1.054687500000e+07 1.989830971187e-04 
1.093750000000e+07 2.506561177105e-04 
1.132812500000e+07 3.117121538306e-04 
1.171875000000e+07 3.830726374691e-04 
1.210937500000e+07 4.656463506102e-04 
1.250000000000e+07 5.603206611452e-04 
1.289062500000e+07 6.679537428247e-04 
1.328125000000e+07 7.893678361890e-04 
1.367187500000e+07 9.253435656614e-04 
1.406250000000e+07 1.076615294536e-03 
1.445312500000e+07 1.243867473970e-03 
1.484375000000e+07 1.427731923481e-03 
1.523437500000e+07 1.628785967911e-03 
1.562500000000e+07 1.847551348359e-03 
1.601562500000e+07 2.084493821201e-03 
1.640625000000e+07 2.340023359212e-03 
1.679687500000e+07 2.614494871071e-03 
1.718750000000e+07 2.908209359581e-03 
1.757812500000e+07 3.221415444227e-03 
1.796875000000e+07 3.554311179666e-03 
1.835937500000e+07 3.907046108142e-03 
1.875000000000e+07 4.279723490333e-03 
1.914062500000e+07 4.672402665511e-03 
1.953125000000e+07 5.085101498068e-03 
1.992187500000e+07 5.517798873228e-03 
2.031250000000e+07 5.970437210188e-03 
2.070312500000e+07 6.442924965803e-03 
2.109375000000e+07 6.935139106443e-03 
2.148437500000e+07 7.446927529597e-03 
2.187500000000e+07 7.978111420401e-03 
2.226562500000e+07 8.528487531329e-03 
2.265625000000e+07 9.097830376064e-03 
2.304687500000e+07 9.685894330898e-03 
2.343750000000e+07 1.029241563904e-02 
2.382812500000e+07 1.091711431494e-02 
2.421875000000e+07 1.155969594720e-02 
2.460937500000e+07 1.221985339982e-02 
2.500000000000e+07 1.289726841260e-02 
2.539062500000e+07 1.359161310231e-02 
2.578125000000e+07 1.430255136681e-02 
2.617187500000e+07 1.502974019503e-02 
2.656250000000e+07 1.577283088587e-02 
2.695312500000e+07 1.653147017959e-02 
2.734375000000e+07 1.730530130537e-02 
2.773437500000e+07 1.809396494876e-02 
2.812500000000e+07 1.889710014314e-02 
2.851562500000e+07 1.971434508887e-02 
2.890625000000e+07 2.054533790429e-02 
2.929687500000e+07 2.138971731217e-02 
2.968750000000e+07 2.224712326565e-02 
3.007812500000e+07 2.311719751718e-02 
3.046875000000e+07 2.399958413406e-02 
3.085937500000e+07 2.489392996407e-02 
3.125000000000e+07 2.579988505444e-02 
3.164062500000e+07 2.671710302733e-02 
3.203125000000e+07 2.764524141484e-02 
3.242187500000e+07 2.858396195638e-02 
3.281250000000e+07 2.953293086115e-02 
3.320312500000e+07 3.049181903827e-02 
3.359375000000e+07 3.146030229698e-02 
3.398437500000e+07 3.243806151920e-02 
3.437500000000e+07 3.342478280666e-02 
3.476562500000e+07 3.442015760442e-02 
3.515625000000e+07 3.542388280294e-02 
3.554687500000e+07 3.643566082026e-02 
3.593750000000e+07 3.745519966602e-02 
3.632812500000e+07 3.848221298886e-02 
3.671875000000e+07 3.951642010865e-02 
3.710937500000e+07 4.055754603486e-02 
3.750000000000e+07 4.160532147235e-02 
3.789062500000e+07 4.265948281573e-02 
3.828125000000e+07 4.371977213334e-02 
3.867187500000e+07 4.478593714190e-02 
3.906250000000e+07 4.585773117273e-02 
3.945312500000e+07 4.693491313033e-02 
3.984375000000e+07 4.801724744429e-02 
4.023437500000e+07 4.910450401509e-02 
4.062500000000e+07 5.019645815448e-02 
4.101562500000e+07 5.129289052122e-02 
4.140625000000e+07 5.239358705256e-02 
4.179687500000e+07 5.349833889211e-02 
4.218750000000e+07 5.460694231456e-02 
4.257812500000e+07 5.571919864765e-02 
4.296875000000e+07 5.683491419191e-02 
4.335937500000e+07 5.795390013839e-02 
4.375000000000e+07 5.907597248487e-02 
4.414062500000e+07 6.020095195076e-02 
4.453125000000e+07 6.132866389108e-02 
4.492187500000e+07 6.245893820966e-02 
4.531250000000e+07 6.359160927184e-02 
4.570312500000e+07 6.472651581704e-02 
4.609375000000e+07 6.586350087107e-02 
4.648437500000e+07 6.700241165871e-02 
4.687500000000e+07 6.814309951646e-02 
4.726562500000e+07 6.928541980574e-02 
4.765625000000e+07 7.042923182664e-02 
4.804687500000e+07 7.157439873231e-02 
4.843750000000e+07 7.272078744410e-02 
4.882812500000e+07 7.386826856760e-02 
4.921875000000e+07 7.501671630956e-02 
4.960937500000e+07 7.616600839587e-02 
5.000000000000e+07 7.731602599056e-02 
5.039062500000e+07 7.846665361594e-02 
5.078125000000e+07 7.961777907396e-02 
5.117187500000e+07 8.076929336870e-02 
5.156250000000e+07 8.192109063017e-02 
5.195312500000e+07 8.307306803935e-02 
5.234375000000e+07 8.422512575457e-02 
5.273437500000e+07 8.537716683912e-02 
5.312500000000e+07 8.652909719030e-02 
5.351562500000e+07 8.768082546971e-02 
5.390625000000e+07 8.883226303497e-02 
5.429687500000e+07 8.998332387273e-02 
5.468750000000e+07 9.113392453304e-02 
5.507812500000e+07 9.228398406507e-02 
5.546875000000e+07 9.343342395420e-02 
5.585937500000e+07 9.458216806040e-02 
5.625000000000e+07 9.573014255795e-02 
5.664062500000e+07 9.687727587649e-02 
5.703125000000e+07 9.802349864335e-02 
5.742187500000e+07 9.916874362717e-02 
5.781250000000e+07 1.003129456828e-01 
5.820312500000e+07 1.014560416975e-01 
5.859375000000e+07 1.025979705382e-01 
5.898437500000e+07 1.037386730002e-01 
5.937500000000e+07 1.048780917572e-01 
5.976562500000e+07 1.060161713119e-01 
6.015625000000e+07 1.071528579484e-01 
6.054687500000e+07 1.082880996856e-01 
6.093750000000e+07 1.094218462312e-01 
6.132812500000e+07 1.105540489379e-01 
6.171875000000e+07 1.116846607595e-01 
6.210937500000e+07 1.128136362089e-01 
6.250000000000e+07 1.139409313164e-01 
6.289062500000e+07 1.150665035901e-01 
6.328125000000e+07 1.161903119761e-01 
6.367187500000e+07 1.173123168202e-01 
6.406250000000e+07 1.184324798312e-01 
6.445312500000e+07 1.195507640439e-01 
6.484375000000e+07 1.206671337838e-01 
6.523437500000e+07 1.217815546327e-01 
6.562500000000e+07 1.228939933947e-01 
6.601562500000e+07 1.240044180638e-01 
6.640625000000e+07 1.251127977914e-01 
6.679687500000e+07 1.262191028557e-01 
6.718750000000e+07 1.273233046307e-01 
6.757812500000e+07 1.284253755571e-01 
6.796875000000e+07 1.295252891131e-01 
6.835937500000e+07 1.306230197866e-01 
6.875000000000e+07 1.317185430475e-01 
6.914062500000e+07 1.328118353215e-01 
6.953125000000e+07 1.339028739637e-01 
6.992187500000e+07 1.349916372334e-01 
7.031250000000e+07 1.360781042696e-01 
7.070312500000e+07 1.371622550668e-01 
7.109375000000e+07 1.382440704520e-01 
7.148437500000e+07 1.393235320613e-01 
7.187500000000e+07 1.404006223183e-01 
7.226562500000e+07 1.414753244123e-01 
7.265625000000e+07 1.425476222771e-01 
7.304687500000e+07 1.436175005709e-01 
7.343750000000e+07 1.446849446559e-01 
7.382812500000e+07 1.457499405792e-01 
7.421875000000e+07 1.468124750540e-01 
7.460937500000e+07 1.478725354405e-01 
7.500000000000e+07 1.489301097288e-01 
7.539062500000e+07 1.499851865210e-01 
7.578125000000e+07 1.510377550141e-01 
7.617187500000e+07 1.520878049838e-01 
7.656250000000e+07 1.531353267681e-01 
7.695312500000e+07 1.541803112515e-01 
7.734375000000e+07 1.552227498502e-01 
7.773437500000e+07 1.562626344965e-01 
7.812500000000e+07 1.572999576249e-01 
7.851562500000e+07 1.583347121579e-01 
7.890625000000e+07 1.593668914918e-01 
7.929687500000e+07 1.603964894839e-01 
7.968750000000e+07 1.614235004391e-01 
8.007812500000e+07 1.624479190974e-01 
8.046875000000e+07 1.634697406213e-01 
8.085937500000e+07 1.644889605840e-01 
8.125000000000e+07 1.655055749577e-01 
8.164062500000e+07 1.665195801021e-01 
8.203125000000e+07 1.675309727533e-01 
8.242187500000e+07 1.685397500128e-01 
8.281250000000e+07 1.695459093374e-01 
8.320312500000e+07 1.705494485286e-01 
8.359375000000e+07 1.715503657227e-01 
8.398437500000e+07 1.725486593813e-01 
8.437500000000e+07 1.735443282813e-01 
8.476562500000e+07 1.745373715063e-01 
8.515625000000e+07 1.755277884373e-01 
8.554687500000e+07 1.765155787438e-01 
8.593750000000e+07 1.775007423758e-01 
8.632812500000e+07 1.784832795551e-01 
8.671875000000e+07 1.794631907671e-01 
8.710937500000e+07 1.804404767537e-01 
8.750000000000e+07 1.814151385046e-01 
8.789062500000e+07 1.823871772507e-01 
8.828125000000e+07 1.833565944566e-01 
8.867187500000e+07 1.843233918133e-01 
8.906250000000e+07 1.852875712316e-01 
8.945312500000e+07 1.862491348352e-01 
8.984375000000e+07 1.872080849545e-01 
9.023437500000e+07 1.881644241198e-01 
9.062500000000e+07 1.891181550555e-01 
9.101562500000e+07 1.900692806739e-01 
9.140625000000e+07 1.910178040694e-01 
9.179687500000e+07 1.919637285127e-01 
9.218750000000e+07 1.929070574455e-01 
9.257812500000e+07 1.938477944746e-01 
9.296875000000e+07 1.947859433673e-01 
9.335937500000e+07 1.957215080455e-01 
9.375000000000e+07 1.966544925815e-01 
9.414062500000e+07 1.975849011925e-01 
9.453125000000e+07 1.985127382362e-01 
9.492187500000e+07 1.994380082060e-01 
9.531250000000e+07 2.003607157267e-01 
9.570312500000e+07 2.012808655500e-01 
9.609375000000e+07 2.021984625503e-01 
9.648437500000e+07 2.031135117205e-01 
9.687500000000e+07 2.040260181681e-01 
9.726562500000e+07 2.049359871110e-01 
9.765625000000e+07 2.058434238738e-01 
9.804687500000e+07 2.067483338845e-01 
9.843750000000e+07 2.076507226700e-01 
9.882812500000e+07 2.085505958533e-01 
9.921875000000e+07 2.094479591499e-01 
9.960937500000e+07 2.103428183642e-01 
1.000000000000e+08 2.112351793865e-01 
1.003906250000e+08 2.121250481897e-01 
1.007812500000e+08 2.130124308263e-01 
1.011718750000e+08 2.138973334253e-01 
1.015625000000e+08 2.147797621894e-01 
1.019531250000e+08 2.156597233920e-01 
1.023437500000e+08 2.165372233744e-01 
1.027343750000e+08 2.174122685434e-01 
1.031250000000e+08 2.182848653683e-01 
1.035156250000e+08 2.191550203787e-01 
1.039062500000e+08 2.200227401616e-01 
1.042968750000e+08 2.208880313593e-01 
1.046875000000e+08 2.217509006670e-01 
1.050781250000e+08 2.226113548303e-01 
1.054687500000e+08 2.234694006432e-01 
1.058593750000e+08 2.243250449457e-01 
1.062500000000e+08 2.251782946222e-01 
1.066406250000e+08 2.260291565985e-01 
1.070312500000e+08 2.268776378407e-01 
1.074218750000e+08 2.277237453528e-01 
1.078125000000e+08 2.285674861750e-01 
1.082031250000e+08 2.294088673817e-01 
1.085937500000e+08 2.302478960796e-01 
1.089843750000e+08 2.310845794063e-01 
1.093750000000e+08 2.319189245284e-01 
1.097656250000e+08 2.327509386398e-01 
1.101562500000e+08 2.335806289601e-01 
1.105468750000e+08 2.344080027331e-01 
1.109375000000e+08 2.352330672254e-01 
1.113281250000e+08 2.360558297245e-01 
1.117187500000e+08 2.368762975380e-01 
1.121093750000e+08 2.376944779914e-01 
1.125000000000e+08 2.385103784276e-01 
1.128906250000e+08 2.393240062048e-01 
1.132812500000e+08 2.401353686957e-01 
1.136718750000e+08 2.409444732862e-01 
1.140625000000e+08 2.417513273740e-01 
1.144531250000e+08 2.425559383674e-01 
1.148437500000e+08 2.433583136844e-01 
1.152343750000e+08 2.441584607513e-01 
1.156250000000e+08 2.449563870020e-01 
1.160156250000e+08 2.457520998764e-01 
1.164062500000e+08 2.465456068198e-01 
1.167968750000e+08 2.473369152818e-01 
1.171875000000e+08 2.481260327152e-01 
1.175781250000e+08 2.489129665752e-01 
1.179687500000e+08 2.496977243186e-01 
1.183593750000e+08 2.504803134024e-01 
1.187500000000e+08 2.512607412836e-01 
1.191406250000e+08 2.520390154180e-01 
1.195312500000e+08 2.528151432593e-01 
1.199218750000e+08 2.535891322586e-01 
1.203125000000e+08 2.543609898635e-01 
1.207031250000e+08 2.551307235171e-01 
1.210937500000e+08 2.558983406579e-01 
1.214843750000e+08 2.566638487183e-01 
1.218750000000e+08 2.574272551247e-01 
1.222656250000e+08 2.581885672963e-01 
1.226562500000e+08 2.589477926447e-01 
1.230468750000e+08 2.597049385731e-01 
1.234375000000e+08 2.604600124760e-01 
1.238281250000e+08 2.612130217382e-01 
1.242187500000e+08 2.619639737349e-01 
1.246093750000e+08 2.627128758302e-01 
1.250000000000e+08 2.634597353774e-01 
1.253906250000e+08 2.642045597182e-01 
1.257812500000e+08 2.649473561820e-01 
1.261718750000e+08 2.656881320857e-01 
1.265625000000e+08 2.664268947333e-01 
1.269531250000e+08 2.671636514149e-01 
1.273437500000e+08 2.678984094070e-01 
1.277343750000e+08 2.686311759715e-01 
1.281250000000e+08 2.693619583557e-01 
1.285156250000e+08 2.700907637915e-01 
1.289062500000e+08 2.708175994954e-01 
1.292968750000e+08 2.715424726680e-01 
1.296875000000e+08 2.722653904934e-01 
1.300781250000e+08 2.729863601393e-01 
1.304687500000e+08 2.737053887562e-01 
1.308593750000e+08 2.744224834776e-01 
1.312500000000e+08 2.751376514191e-01 
1.316406250000e+08 2.758508996786e-01 
1.320312500000e+08 2.765622353358e-01 
1.324218750000e+08 2.772716654518e-01 
1.328125000000e+08 2.779791970691e-01 
1.332031250000e+08 2.786848372112e-01 
1.335937500000e+08 2.793885928823e-01 
1.339843750000e+08 2.800904710672e-01 
1.343750000000e+08 2.807904787309e-01 
1.347656250000e+08 2.814886228186e-01 
1.351562500000e+08 2.821849102553e-01 
1.355468750000e+08 2.828793479456e-01 
1.359375000000e+08 2.835719427736e-01 
1.363281250000e+08 2.842627016028e-01 
1.367187500000e+08 2.849516312757e-01 
1.371093750000e+08 2.856387386137e-01 
1.375000000000e+08 2.863240304170e-01 
1.378906250000e+08 2.870075134644e-01 
1.382812500000e+08 2.876891945132e-01 
1.386718750000e+08 2.883690802990e-01 
1.390625000000e+08 2.890471775355e-01 
1.394531250000e+08 2.897234929146e-01 
1.398437500000e+08 2.903980331060e-01 
1.402343750000e+08 2.910708047572e-01 
1.406250000000e+08 2.917418144936e-01 
1.410156250000e+08 2.924110689181e-01 
1.414062500000e+08 2.930785746109e-01 
1.417968750000e+08 2.937443381298e-01 
1.421875000000e+08 2.944083660099e-01 
1.425781250000e+08 2.950706647636e-01 
1.429687500000e+08 2.957312408803e-01 
1.433593750000e+08 2.963901008265e-01 
1.437500000000e+08 2.970472510458e-01 
1.441406250000e+08 2.977026979588e-01 
1.445312500000e+08 2.983564479629e-01 
1.449218750000e+08 2.990085074322e-01 
1.453125000000e+08 2.996588827180e-01 
1.457031250000e+08 3.003075801479e-01 
1.460937500000e+08 3.009546060265e-01 
1.464843750000e+08 3.015999666350e-01 
1.468750000000e+08 3.022436682311e-01 
1.472656250000e+08 3.028857170492e-01 
1.476562500000e+08 3.035261193004e-01 
1.480468750000e+08 3.041648811721e-01 
1.484375000000e+08 3.048020088286e-01 
1.488281250000e+08 3.054375084103e-01 
1.492187500000e+08 3.060713860344e-01 
1.496093750000e+08 3.067036477946e-01 
1.500000000000e+08 3.073342997609e-01 
1.503906250000e+08 3.079633479799e-01 
1.507812500000e+08 3.085907984749e-01 
1.511718750000e+08 3.092166572454e-01 
1.515625000000e+08 3.098409302675e-01 
1.519531250000e+08 3.104636234939e-01 
1.523437500000e+08 3.110847428537e-01 
1.527343750000e+08 3.117042942526e-01 
1.531250000000e+08 3.123222835730e-01 
1.535156250000e+08 3.129387166735e-01 
1.539062500000e+08 3.135535993898e-01 
1.542968750000e+08 3.141669375338e-01 
1.546875000000e+08 3.147787368943e-01 
1.550781250000e+08 3.153890032366e-01 
1.554687500000e+08 3.159977423028e-01 
1.558593750000e+08 3.166049598118e-01 
1.562500000000e+08 3.172106614591e-01 
1.566406250000e+08 3.178148529172e-01 
1.570312500000e+08 3.184175398354e-01 
1.574218750000e+08 3.190187278396e-01 
1.578125000000e+08 3.196184225331e-01 
1.582031250000e+08 3.202166294959e-01 
1.585937500000e+08 3.208133542850e-01 
1.589843750000e+08 3.214086024345e-01 
1.593750000000e+08 3.220023794556e-01 
1.597656250000e+08 3.225946908368e-01 
1.601562500000e+08 3.231855420436e-01 
1.605468750000e+08 3.237749385188e-01 
1.609375000000e+08 3.243628856827e-01 
1.613281250000e+08 3.249493889327e-01 
1.617187500000e+08 3.255344536438e-01 
1.621093750000e+08 3.261180851684e-01 
1.625000000000e+08 3.267002888366e-01 
1.628906250000e+08 3.272810699557e-01 
1.632812500000e+08 3.278604338112e-01 
1.636718750000e+08 3.284383856660e-01 
1.640625000000e+08 3.290149307607e-01 
1.644531250000e+08 3.295900743139e-01 
1.648437500000e+08 3.301638215222e-01 
1.652343750000e+08 3.307361775601e-01 
1.656250000000e+08 3.313071475799e-01 
1.660156250000e+08 3.318767367123e-01 
1.664062500000e+08 3.324449500661e-01 
1.667968750000e+08 3.330117927284e-01 
1.671875000000e+08 3.335772697645e-01 
1.675781250000e+08 3.341413862181e-01 
1.679687500000e+08 3.347041471114e-01 
1.683593750000e+08 3.352655574452e-01 
1.687500000000e+08 3.358256221986e-01 
1.691406250000e+08 3.363843463298e-01 
1.695312500000e+08 3.369417347754e-01 
1.699218750000e+08 3.374977924510e-01 
1.703125000000e+08 3.380525242510e-01 
1.707031250000e+08 3.386059350488e-01 
1.710937500000e+08 3.391580296969e-01 
1.714843750000e+08 3.397088130268e-01 
1.718750000000e+08 3.402582898492e-01 
1.722656250000e+08 3.408064649541e-01 
1.726562500000e+08 3.413533431110e-01 
1.730468750000e+08 3.418989290686e-01 
1.734375000000e+08 3.424432275552e-01 
1.738281250000e+08 3.429862432786e-01 
1.742187500000e+08 3.435279809264e-01 
1.746093750000e+08 3.440684451658e-01 
1.750000000000e+08 3.446076406439e-01 
1.753906250000e+08 3.451455719877e-01 
1.757812500000e+08 3.456822438040e-01 
1.761718750000e+08 3.462176606799e-01 
1.765625000000e+08 3.467518271824e-01 
1.769531250000e+08 3.472847478589e-01 
1.773437500000e+08 3.478164272370e-01 
1.777343750000e+08 3.483468698247e-01 
1.781250000000e+08 3.488760801103e-01 
1.785156250000e+08 3.494040625629e-01 
1.789062500000e+08 3.499308216321e-01 
1.792968750000e+08 3.504563617480e-01 
1.796875000000e+08 3.509806873217e-01 
1.800781250000e+08 3.515038027451e-01 
1.804687500000e+08 3.520257123910e-01 
1.808593750000e+08 3.525464206133e-01 
1.812500000000e+08 3.530659317468e-01 
1.816406250000e+08 3.535842501077e-01 
1.820312500000e+08 3.541013799934e-01 
1.824218750000e+08 3.546173256825e-01 
1.828125000000e+08 3.551320914351e-01 
1.832031250000e+08 3.556456814929e-01 
1.835937500000e+08 3.561581000790e-01 
1.839843750000e+08 3.566693513983e-01 
1.843750000000e+08 3.571794396375e-01 
1.847656250000e+08 3.576883689648e-01 
1.851562500000e+08 3.581961435307e-01 
1.855468750000e+08 3.587027674675e-01 
1.859375000000e+08 3.592082448894e-01 
1.863281250000e+08 3.597125798930e-01 
1.867187500000e+08 3.602157765571e-01 
1.871093750000e+08 3.607178389427e-01 
1.875000000000e+08 3.612187710932e-01 
1.878906250000e+08 3.617185770345e-01 
1.882812500000e+08 3.622172607749e-01 
1.886718750000e+08 3.627148263057e-01 
1.890625000000e+08 3.632112776005e-01 
1.894531250000e+08 3.637066186158e-01 
1.898437500000e+08 3.642008532911e-01 
1.902343750000e+08 3.646939855487e-01 
1.906250000000e+08 3.651860192939e-01 
1.910156250000e+08 3.656769584153e-01 
1.914062500000e+08 3.661668067843e-01 
1.917968750000e+08 3.666555682560e-01 
1.921875000000e+08 3.671432466685e-01 
1.925781250000e+08 3.676298458434e-01 
1.929687500000e+08 3.681153695859e-01 
1.933593750000e+08 3.685998216846e-01 
1.937500000000e+08 3.690832059119e-01 
1.941406250000e+08 3.695655260238e-01 
1.945312500000e+08 3.700467857601e-01 
1.949218750000e+08 3.705269888445e-01 
1.953125000000e+08 3.710061389847e-01 
1.957031250000e+08 3.714842398724e-01 
1.960937500000e+08 3.719612951834e-01 
1.964843750000e+08 3.724373085775e-01 
1.968750000000e+08 3.729122836991e-01 
1.972656250000e+08 3.733862241766e-01 
1.976562500000e+08 3.738591336231e-01 
1.980468750000e+08 3.743310156359e-01 
1.984375000000e+08 3.748018737969e-01 
1.988281250000e+08 3.752717116729e-01 
1.992187500000e+08 3.757405328150e-01 
1.996093750000e+08 3.762083407594e-01 
2.000000000000e+08 3.766751390270e-01 
2.003906250000e+08 3.771409311235e-01 
2.007812500000e+08 3.776057205399e-01 
2.011718750000e+08 3.780695107520e-01 
2.015625000000e+08 3.785323052209e-01 
2.019531250000e+08 3.789941073928e-01 
2.023437500000e+08 3.794549206991e-01 
2.027343750000e+08 3.799147485569e-01 
2.031250000000e+08 3.803735943683e-01 
2.035156250000e+08 3.808314615212e-01 
2.039062500000e+08 3.812883533890e-01 
2.042968750000e+08 3.817442733306e-01 
2.046875000000e+08 3.821992246907e-01 
2.050781250000e+08 3.826532107998e-01 
2.054687500000e+08 3.831062349742e-01 
2.058593750000e+08 3.835583005162e-01 
2.062500000000e+08 3.840094107140e-01 
2.066406250000e+08 3.844595688418e-01 
2.070312500000e+08 3.849087781601e-01 
2.074218750000e+08 3.853570419154e-01 
2.078125000000e+08 3.858043633406e-01 
2.082031250000e+08 3.862507456548e-01 
2.085937500000e+08 3.866961920635e-01 
2.089843750000e+08 3.871407057589e-01 
2.093750000000e+08 3.875842899194e-01 
2.097656250000e+08 3.880269477101e-01 
2.101562500000e+08 3.884686822828e-01 
2.105468750000e+08 3.889094967760e-01 
2.109375000000e+08 3.893493943151e-01 
2.113281250000e+08 3.897883780121e-01 
2.117187500000e+08 3.902264509662e-01 
2.121093750000e+08 3.906636162633e-01 
2.125000000000e+08 3.910998769765e-01 
2.128906250000e+08 3.915352361661e-01 
2.132812500000e+08 3.919696968794e-01 
2.136718750000e+08 3.924032621511e-01 
2.140625000000e+08 3.928359350029e-01 
2.144531250000e+08 3.932677184443e-01 
2.148437500000e+08 3.936986154719e-01 
2.152343750000e+08 3.941286290699e-01 
2.156250000000e+08 3.945577622100e-01 
2.160156250000e+08 3.949860178516e-01 
2.164062500000e+08 3.954133989416e-01 
2.167968750000e+08 3.958399084149e-01 
2.171875000000e+08 3.962655491939e-01 
2.175781250000e+08 3.966903241891e-01 
2.179687500000e+08 3.971142362987e-01 
2.183593750000e+08 3.975372884092e-01 
2.187500000000e+08 3.979594833946e-01 
2.191406250000e+08 3.983808241175e-01 
2.195312500000e+08 3.988013134285e-01 
2.199218750000e+08 3.992209541662e-01 
2.203125000000e+08 3.996397491577e-01 
2.207031250000e+08 4.000577012184e-01 
2.210937500000e+08 4.004748131520e-01 
2.214843750000e+08 4.008910877507e-01 
2.218750000000e+08 4.013065277951e-01 
2.222656250000e+08 4.017211360545e-01 
2.226562500000e+08 4.021349152868e-01 
2.230468750000e+08 4.025478682384e-01 
2.234375000000e+08 4.029599976445e-01 
2.238281250000e+08 4.033713062293e-01 
2.242187500000e+08 4.037817967054e-01 
2.246093750000e+08 4.041914717747e-01 
2.250000000000e+08 4.046003341278e-01 
2.253906250000e+08 4.050083864444e-01 
2.257812500000e+08 4.054156313932e-01 
2.261718750000e+08 4.058220716320e-01 
2.265625000000e+08 4.062277098079e-01 
2.269531250000e+08 4.066325485570e-01 
2.273437500000e+08 4.070365905048e-01 
2.277343750000e+08 4.074398382660e-01 
2.281250000000e+08 4.078422944449e-01 
2.285156250000e+08 4.082439616351e-01 
2.289062500000e+08 4.086448424195e-01 
2.292968750000e+08 4.090449393707e-01 
2.296875000000e+08 4.094442550510e-01 
2.300781250000e+08 4.098427920121e-01 
2.304687500000e+08 4.102405527954e-01 
2.308593750000e+08 4.106375399323e-01 
2.312500000000e+08 4.110337559436e-01 
2.316406250000e+08 4.114292033402e-01 
2.320312500000e+08 4.118238846227e-01 
2.324218750000e+08 4.122178022819e-01 
2.328125000000e+08 4.126109587983e-01 
2.332031250000e+08 4.130033566425e-01 
2.335937500000e+08 4.133949982752e-01 
2.339843750000e+08 4.137858861474e-01 
2.343750000000e+08 4.141760226999e-01 
2.347656250000e+08 4.145654103641e-01 
2.351562500000e+08 4.149540515615e-01 
2.355468750000e+08 4.153419487038e-01 
2.359375000000e+08 4.157291041933e-01 
2.363281250000e+08 4.161155204225e-01 
2.367187500000e+08 4.165011997745e-01 
2.371093750000e+08 4.168861446228e-01 
2.375000000000e+08 4.172703573317e-01 
2.378906250000e+08 4.176538402557e-01 
2.382812500000e+08 4.180365957402e-01 
2.386718750000e+08 4.184186261213e-01 
2.390625000000e+08 4.187999337257e-01 
2.394531250000e+08 4.191805208710e-01 
2.398437500000e+08 4.195603898654e-01 
2.402343750000e+08 4.199395430084e-01 
2.406250000000e+08 4.203179825899e-01 
2.410156250000e+08 4.206957108912e-01 
2.414062500000e+08 4.210727301842e-01 
2.417968750000e+08 4.214490427321e-01 
2.421875000000e+08 4.218246507892e-01 
2.425781250000e+08 4.221995566007e-01 
2.429687500000e+08 4.225737624033e-01 
2.433593750000e+08 4.229472704245e-01 
2.437500000000e+08 4.233200828835e-01 
2.441406250000e+08 4.236922019905e-01 
2.445312500000e+08 4.240636299470e-01 
2.449218750000e+08 4.244343689462e-01 
2.453125000000e+08 4.248044211724e-01 
2.457031250000e+08 4.251737888014e-01 
2.460937500000e+08 4.255424740008e-01 
2.464843750000e+08 4.259104789294e-01 
2.468750000000e+08 4.262778057376e-01 
2.472656250000e+08 4.266444565677e-01 
2.476562500000e+08 4.270104335535e-01 
2.480468750000e+08 4.273757388205e-01 
2.484375000000e+08 4.277403744858e-01 
2.488281250000e+08 4.281043426585e-01 
2.492187500000e+08 4.284676454396e-01 
2.496093750000e+08 4.288302849216e-01 
2.500000000000e+08 4.291922631893e-01 
2.503906250000e+08 4.295535823190e-01 
2.507812500000e+08 4.299142443795e-01 
2.511718750000e+08 4.302742514312e-01 
2.515625000000e+08 4.306336055266e-01 
2.519531250000e+08 4.309923087106e-01 
2.523437500000e+08 4.313503630198e-01 
2.527343750000e+08 4.317077704833e-01 
2.531250000000e+08 4.320645331221e-01 
2.535156250000e+08 4.324206529498e-01 
2.539062500000e+08 4.327761319720e-01 
2.542968750000e+08 4.331309721867e-01 
2.546875000000e+08 4.334851755842e-01 
2.550781250000e+08 4.338387441473e-01 
2.554687500000e+08 4.341916798510e-01 
2.558593750000e+08 4.345439846630e-01 
2.562500000000e+08 4.348956605433e-01 
2.566406250000e+08 4.352467094445e-01 
2.570312500000e+08 4.355971333118e-01 
2.574218750000e+08 4.359469340830e-01 
2.578125000000e+08 4.362961136884e-01 
2.582031250000e+08 4.366446740511e-01 
2.585937500000e+08 4.369926170868e-01 
2.589843750000e+08 4.373399447039e-01 
2.593750000000e+08 4.376866588037e-01 
2.597656250000e+08 4.380327612803e-01 
2.601562500000e+08 4.383782540205e-01 
2.605468750000e+08 4.387231389039e-01 
2.609375000000e+08 4.390674178033e-01 
2.613281250000e+08 4.394110925843e-01 
2.617187500000e+08 4.397541651052e-01 
2.621093750000e+08 4.400966372176e-01 
2.625000000000e+08 4.404385107661e-01 
2.628906250000e+08 4.407797875882e-01 
2.632812500000e+08 4.411204695146e-01 
2.636718750000e+08 4.414605583692e-01 
2.640625000000e+08 4.418000559689e-01 
2.644531250000e+08 4.421389641239e-01 
2.648437500000e+08 4.424772846375e-01 
2.652343750000e+08 4.428150193064e-01 
2.656250000000e+08 4.431521699205e-01 
2.660156250000e+08 4.434887382628e-01 
2.664062500000e+08 4.438247261101e-01 
2.667968750000e+08 4.441601352323e-01 
2.671875000000e+08 4.444949673926e-01 
2.675781250000e+08 4.448292243477e-01 
2.679687500000e+08 4.451629078480e-01 
2.683593750000e+08 4.454960196372e-01 
2.687500000000e+08 4.458285614523e-01 
2.691406250000e+08 4.461605350243e-01 
2.695312500000e+08 4.464919420775e-01 
2.699218750000e+08 4.468227843298e-01 
2.703125000000e+08 4.471530634928e-01 
2.707031250000e+08 4.474827812718e-01 
2.710937500000e+08 4.478119393658e-01 
2.714843750000e+08 4.481405394674e-01 
2.718750000000e+08 4.484685832631e-01 
2.722656250000e+08 4.487960724331e-01 
2.726562500000e+08 4.491230086513e-01 
2.730468750000e+08 4.494493935857e-01 
2.734375000000e+08 4.497752288980e-01 
2.738281250000e+08 4.501005162438e-01 
2.742187500000e+08 4.504252572725e-01 
2.746093750000e+08 4.507494536277e-01 
2.750000000000e+08 4.510731069467e-01 
2.753906250000e+08 4.513962188612e-01 
2.757812500000e+08 4.517187909964e-01 
2.761718750000e+08 4.520408249719e-01 
2.765625000000e+08 4.523623224013e-01 
2.769531250000e+08 4.526832848922e-01 
2.773437500000e+08 4.530037140466e-01 
2.777343750000e+08 4.533236114604e-01 
2.781250000000e+08 4.536429787238e-01 
2.785156250000e+08 4.539618174211e-01 
2.789062500000e+08 4.542801291309e-01 
2.792968750000e+08 4.545979154261e-01 
2.796875000000e+08 4.549151778739e-01 
2.800781250000e+08 4.552319180357e-01 
2.804687500000e+08 4.555481374674e-01 
2.808593750000e+08 4.558638377190e-01 
2.812500000000e+08 4.561790203350e-01 
2.816406250000e+08 4.564936868546e-01 
2.820312500000e+08 4.568078388110e-01 
2.824218750000e+08 4.571214777320e-01 
2.828125000000e+08 4.574346051401e-01 
2.832031250000e+08 4.577472225520e-01 
2.835937500000e+08 4.580593314790e-01 
2.839843750000e+08 4.583709334272e-01 
2.843750000000e+08 4.586820298970e-01 
2.847656250000e+08 4.589926223834e-01 
2.851562500000e+08 4.593027123762e-01 
2.855468750000e+08 4.596123013598e-01 
2.859375000000e+08 4.599213908132e-01 
2.863281250000e+08 4.602299822101e-01 
2.867187500000e+08 4.605380770190e-01 
2.871093750000e+08 4.608456767030e-01 
2.875000000000e+08 4.611527827202e-01 
2.878906250000e+08 4.614593965232e-01 
2.882812500000e+08 4.617655195596e-01 
2.886718750000e+08 4.620711532718e-01 
2.890625000000e+08 4.623762990970e-01 
2.894531250000e+08 4.626809584673e-01 
2.898437500000e+08 4.629851328097e-01 
2.902343750000e+08 4.632888235461e-01 
2.906250000000e+08 4.635920320934e-01 
2.910156250000e+08 4.638947598635e-01 
2.914062500000e+08 4.641970082630e-01 
2.917968750000e+08 4.644987786938e-01 
2.921875000000e+08 4.648000725528e-01 
2.925781250000e+08 4.651008912318e-01 
2.929687500000e+08 4.654012361179e-01 
2.933593750000e+08 4.657011085929e-01 
2.937500000000e+08 4.660005100341e-01 
2.941406250000e+08 4.662994418138e-01 
2.945312500000e+08 4.665979052994e-01 
2.949218750000e+08 4.668959018535e-01 
2.953125000000e+08 4.671934328339e-01 
2.957031250000e+08 4.674904995937e-01 
2.960937500000e+08 4.677871034809e-01 
2.964843750000e+08 4.680832458393e-01 
2.968750000000e+08 4.683789280075e-01 
2.972656250000e+08 4.686741513196e-01 
2.976562500000e+08 4.689689171049e-01 
2.980468750000e+08 4.692632266883e-01 
2.984375000000e+08 4.695570813897e-01 
2.988281250000e+08 4.698504825246e-01 