 TITLE = "Time curves in points"
 VARIABLES = "TIME " "TEMPERATURE1" 
 ZONE T="POINT=POINT2"
0.000000000000e+00 0.000000000000e+00 
3.906250000000e+05 3.130682287831e-01 
7.812500000000e+05 4.639610121239e-01 
1.171875000000e+06 5.504377628215e-01 
1.562500000000e+06 6.066015827083e-01 
1.953125000000e+06 6.463771014742e-01 
2.343750000000e+06 6.763009478600e-01 
2.734375000000e+06 6.998136014365e-01 
3.125000000000e+06 7.188970357385e-01 
3.515625000000e+06 7.347765929429e-01 
3.906250000000e+06 7.482532723564e-01 
4.296875000000e+06 7.598746234824e-01 
4.687500000000e+06 7.700288446633e-01 
5.078125000000e+06 7.789996078783e-01 
5.468750000000e+06 7.869995445188e-01 
5.859375000000e+06 7.941915290247e-01 
6.250000000000e+06 8.007026749188e-01 
6.640625000000e+06 8.066338126627e-01 
7.031250000000e+06 8.120660740499e-01 
7.421875000000e+06 8.170655703168e-01 
7.812500000000e+06 8.216867825598e-01 
8.203125000000e+06 8.259750627876e-01 
8.593750000000e+06 8.299685084135e-01 
8.984375000000e+06 8.336993873915e-01 
9.375000000000e+06 8.371952358479e-01 
9.765625000000e+06 8.404797135010e-01 
1.015625000000e+07 8.435732775398e-01 
1.054687500000e+07 8.464937187654e-01 
1.093750000000e+07 8.492565920481e-01 
1.132812500000e+07 8.518755648512e-01 
1.171875000000e+07 8.543627016230e-01 
1.210937500000e+07 8.567286975438e-01 
1.250000000000e+07 8.589830719452e-01 
1.289062500000e+07 8.611343293706e-01 
1.328125000000e+07 8.631900944830e-01 
1.367187500000e+07 8.651572256903e-01 
1.406250000000e+07 8.670419113468e-01 
1.445312500000e+07 8.688497515982e-01 
1.484375000000e+07 8.705858283370e-01 
1.523437500000e+07 8.722547652543e-01 
1.562500000000e+07 8.738607796034e-01 
1.601562500000e+07 8.754077269940e-01 
1.640625000000e+07 8.768991402985e-01 
1.679687500000e+07 8.783382635637e-01 
1.718750000000e+07 8.797280816677e-01 
1.757812500000e+07 8.810713463393e-01 
1.796875000000e+07 8.823705990552e-01 
1.835937500000e+07 8.836281912483e-01 
1.875000000000e+07 8.848463021917e-01 
1.914062500000e+07 8.860269548693e-01 
1.953125000000e+07 8.871720300939e-01 
1.992187500000e+07 8.882832790973e-01 
2.031250000000e+07 8.893623347856e-01 
2.070312500000e+07 8.904107218208e-01 
2.109375000000e+07 8.914298656737e-01 
2.148437500000e+07 8.924211007672e-01 
2.187500000000e+07 8.933856778187e-01 
2.226562500000e+07 8.943247704704e-01 
2.265625000000e+07 8.952394812896e-01 
2.304687500000e+07 8.961308472076e-01 
2.343750000000e+07 8.969998444588e-01 
2.382812500000e+07 8.978473930727e-01 
2.421875000000e+07 8.986743609665e-01 
2.460937500000e+07 8.994815676791e-01 
2.500000000000e+07 9.002697877835e-01 
2.539062500000e+07 9.010397540096e-01 
2.578125000000e+07 9.017921601056e-01 
2.617187500000e+07 9.025276634641e-01 
2.656250000000e+07 9.032468875357e-01 
2.695312500000e+07 9.039504240486e-01 
2.734375000000e+07 9.046388350542e-01 
2.773437500000e+07 9.053126548133e-01 
2.812500000000e+07 9.059723915382e-01 
2.851562500000e+07 9.066185290027e-01 
2.890625000000e+07 9.072515280330e-01 
2.929687500000e+07 9.078718278874e-01 
2.968750000000e+07 9.084798475379e-01 
3.007812500000e+07 9.090759868582e-01 
3.046875000000e+07 9.096606277291e-01 
3.085937500000e+07 9.102341350656e-01 
3.125000000000e+07 9.107968577742e-01 
3.164062500000e+07 9.113491296443e-01 
3.203125000000e+07 9.118912701801e-01 
3.242187500000e+07 9.124235853769e-01 
3.281250000000e+07 9.129463684468e-01 
3.320312500000e+07 9.134599004973e-01 
3.359375000000e+07 9.139644511658e-01 
3.398437500000e+07 9.144602792148e-01 
3.437500000000e+07 9.149476330891e-01 
3.476562500000e+07 9.154267514388e-01 
3.515625000000e+07 9.158978636102e-01 
3.554687500000e+07 9.163611901071e-01 
3.593750000000e+07 9.168169430242e-01 
3.632812500000e+07 9.172653264550e-01 
3.671875000000e+07 9.177065368755e-01 
3.710937500000e+07 9.181407635063e-01 
3.750000000000e+07 9.185681886531e-01 
3.789062500000e+07 9.189889880284e-01 
3.828125000000e+07 9.194033310548e-01 
3.867187500000e+07 9.198113811516e-01 
3.906250000000e+07 9.202132960055e-01 
3.945312500000e+07 9.206092278268e-01 
3.984375000000e+07 9.209993235910e-01 
4.023437500000e+07 9.213837252687e-01 
4.062500000000e+07 9.217625700420e-01 
4.101562500000e+07 9.221359905105e-01 
4.140625000000e+07 9.225041148861e-01 
4.179687500000e+07 9.228670671780e-01 
4.218750000000e+07 9.232249673680e-01 
4.257812500000e+07 9.235779315775e-01 
4.296875000000e+07 9.239260722253e-01 
4.335937500000e+07 9.242694981781e-01 
4.375000000000e+07 9.246083148938e-01 
4.414062500000e+07 9.249426245572e-01 
4.453125000000e+07 9.252725262096e-01 
4.492187500000e+07 9.255981158719e-01 
4.531250000000e+07 9.259194866622e-01 
4.570312500000e+07 9.262367289076e-01 
4.609375000000e+07 9.265499302507e-01 
4.648437500000e+07 9.268591757514e-01 
4.687500000000e+07 9.271645479842e-01 
4.726562500000e+07 9.274661271301e-01 
4.765625000000e+07 9.277639910660e-01 
4.804687500000e+07 9.280582154481e-01 
4.843750000000e+07 9.283488737937e-01 
4.882812500000e+07 9.286360375574e-01 
4.921875000000e+07 9.289197762056e-01 
4.960937500000e+07 9.292001572867e-01 
5.000000000000e+07 9.294772464987e-01 
5.039062500000e+07 9.297511077540e-01 
5.078125000000e+07 9.300218032411e-01 
5.117187500000e+07 9.302893934841e-01 
5.156250000000e+07 9.305539373995e-01 
5.195312500000e+07 9.308154923507e-01 
5.234375000000e+07 9.310741142000e-01 
5.273437500000e+07 9.313298573593e-01 
5.312500000000e+07 9.315827748375e-01 
5.351562500000e+07 9.318329182871e-01 
5.390625000000e+07 9.320803380482e-01 
5.429687500000e+07 9.323250831915e-01 
5.468750000000e+07 9.325672015587e-01 
5.507812500000e+07 9.328067398021e-01 
5.546875000000e+07 9.330437434220e-01 
5.585937500000e+07 9.332782568035e-01 
5.625000000000e+07 9.335103232510e-01 
5.664062500000e+07 9.337399850221e-01 
5.703125000000e+07 9.339672833596e-01 
5.742187500000e+07 9.341922585227e-01 
5.781250000000e+07 9.344149498173e-01 
5.820312500000e+07 9.346353956244e-01 
5.859375000000e+07 9.348536334280e-01 
5.898437500000e+07 9.350696998419e-01 
5.937500000000e+07 9.352836306358e-01 
5.976562500000e+07 9.354954607594e-01 
6.015625000000e+07 9.357052243674e-01 
6.054687500000e+07 9.359129548417e-01 
6.093750000000e+07 9.361186848143e-01 
6.132812500000e+07 9.363224461888e-01 
6.171875000000e+07 9.365242701606e-01 
6.210937500000e+07 9.367241872378e-01 
6.250000000000e+07 9.369222272600e-01 
6.289062500000e+07 9.371184194172e-01 
6.328125000000e+07 9.373127922677e-01 
6.367187500000e+07 9.375053737558e-01 
6.406250000000e+07 9.376961912288e-01 
6.445312500000e+07 9.378852714526e-01 
6.484375000000e+07 9.380726406284e-01 
6.523437500000e+07 9.382583244072e-01 
6.562500000000e+07 9.384423479050e-01 
6.601562500000e+07 9.386247357170e-01 
6.640625000000e+07 9.388055119311e-01 
6.679687500000e+07 9.389847001417e-01 
6.718750000000e+07 9.391623234622e-01 
6.757812500000e+07 9.393384045381e-01 
6.796875000000e+07 9.395129655583e-01 
6.835937500000e+07 9.396860282678e-01 
6.875000000000e+07 9.398576139783e-01 
6.914062500000e+07 9.400277435795e-01 
6.953125000000e+07 9.401964375500e-01 
6.992187500000e+07 9.403637159673e-01 
7.031250000000e+07 9.405295985181e-01 
7.070312500000e+07 9.406941045078e-01 
7.109375000000e+07 9.408572528700e-01 
7.148437500000e+07 9.410190621761e-01 
7.187500000000e+07 9.411795506432e-01 
7.226562500000e+07 9.413387361439e-01 
7.265625000000e+07 9.414966362136e-01 
7.304687500000e+07 9.416532680593e-01 
7.343750000000e+07 9.418086485673e-01 
7.382812500000e+07 9.419627943107e-01 
7.421875000000e+07 9.421157215568e-01 
7.460937500000e+07 9.422674462747e-01 
7.500000000000e+07 9.424179841419e-01 
7.539062500000e+07 9.425673505513e-01 
7.578125000000e+07 9.427155606176e-01 
7.617187500000e+07 9.428626291841e-01 
7.656250000000e+07 9.430085708286e-01 
7.695312500000e+07 9.431533998695e-01 
7.734375000000e+07 9.432971303720e-01 
7.773437500000e+07 9.434397761535e-01 
7.812500000000e+07 9.435813507892e-01 
7.851562500000e+07 9.437218676180e-01 
7.890625000000e+07 9.438613397470e-01 
7.929687500000e+07 9.439997800573e-01 
7.968750000000e+07 9.441372012087e-01 
8.007812500000e+07 9.442736156444e-01 
8.046875000000e+07 9.444090355963e-01 
8.085937500000e+07 9.445434730890e-01 
8.125000000000e+07 9.446769399446e-01 
8.164062500000e+07 9.448094477869e-01 
8.203125000000e+07 9.449410080459e-01 
8.242187500000e+07 9.450716319618e-01 
8.281250000000e+07 9.452013305888e-01 
8.320312500000e+07 9.453301147995e-01 
8.359375000000e+07 9.454579952883e-01 
8.398437500000e+07 9.455849825754e-01 
8.437500000000e+07 9.457110870105e-01 
8.476562500000e+07 9.458363187758e-01 
8.515625000000e+07 9.459606878902e-01 
8.554687500000e+07 9.460842042121e-01 
8.593750000000e+07 9.462068774430e-01 
8.632812500000e+07 9.463287171305e-01 
8.671875000000e+07 9.464497326717e-01 
8.710937500000e+07 9.465699333158e-01 
8.750000000000e+07 9.466893281675e-01 
8.789062500000e+07 9.468079261896e-01 
8.828125000000e+07 9.469257362061e-01 
8.867187500000e+07 9.470427669047e-01 
8.906250000000e+07 9.471590268396e-01 
8.945312500000e+07 9.472745244342e-01 
8.984375000000e+07 9.473892679834e-01 
9.023437500000e+07 9.475032656565e-01 
9.062500000000e+07 9.476165254993e-01 
9.101562500000e+07 9.477290554366e-01 
9.140625000000e+07 9.478408632748e-01 
9.179687500000e+07 9.479519567035e-01 
9.218750000000e+07 9.480623432986e-01 
9.257812500000e+07 9.481720305235e-01 
9.296875000000e+07 9.482810257322e-01 
9.335937500000e+07 9.483893361706e-01 
9.375000000000e+07 9.484969689789e-01 
9.414062500000e+07 9.486039311937e-01 
9.453125000000e+07 9.487102297493e-01 
9.492187500000e+07 9.488158714805e-01 
9.531250000000e+07 9.489208631236e-01 
9.570312500000e+07 9.490252113188e-01 
9.609375000000e+07 9.491289226117e-01 
9.648437500000e+07 9.492320034548e-01 
9.687500000000e+07 9.493344602099e-01 
9.726562500000e+07 9.494362991488e-01 
9.765625000000e+07 9.495375264559e-01 
9.804687500000e+07 9.496381482289e-01 
9.843750000000e+07 9.497381704809e-01 
9.882812500000e+07 9.498375991416e-01 
9.921875000000e+07 9.499364400592e-01 
9.960937500000e+07 9.500346990013e-01 
1.000000000000e+08 9.501323816566e-01 
1.003906250000e+08 9.502294936363e-01 
1.007812500000e+08 9.503260404755e-01 
1.011718750000e+08 9.504220276342e-01 
1.015625000000e+08 9.505174604991e-01 
1.019531250000e+08 9.506123443844e-01 
1.023437500000e+08 9.507066845333e-01 
1.027343750000e+08 9.508004861192e-01 
1.031250000000e+08 9.508937542469e-01 
1.035156250000e+08 9.509864939534e-01 
1.039062500000e+08 9.510787102099e-01 
1.042968750000e+08 9.511704079219e-01 
1.046875000000e+08 9.512615919309e-01 
1.050781250000e+08 9.513522670156e-01 
1.054687500000e+08 9.514424378924e-01 
1.058593750000e+08 9.515321092168e-01 
1.062500000000e+08 9.516212855845e-01 
1.066406250000e+08 9.517099715319e-01 
1.070312500000e+08 9.517981715379e-01 
1.074218750000e+08 9.518858900238e-01 
1.078125000000e+08 9.519731313552e-01 
1.082031250000e+08 9.520598998422e-01 
1.085937500000e+08 9.521461997408e-01 
1.089843750000e+08 9.522320352535e-01 
1.093750000000e+08 9.523174105302e-01 
1.097656250000e+08 9.524023296691e-01 
1.101562500000e+08 9.524867967173e-01 
1.105468750000e+08 9.525708156722e-01 
1.109375000000e+08 9.526543904815e-01 
1.113281250000e+08 9.527375250446e-01 
1.117187500000e+08 9.528202232131e-01 
1.121093750000e+08 9.529024887916e-01 
1.125000000000e+08 9.529843255383e-01 
1.128906250000e+08 9.530657371660e-01 
1.132812500000e+08 9.531467273427e-01 
1.136718750000e+08 9.532272996919e-01 
1.140625000000e+08 9.533074577941e-01 
1.144531250000e+08 9.533872051867e-01 
1.148437500000e+08 9.534665453650e-01 
1.152343750000e+08 9.535454817829e-01 
1.156250000000e+08 9.536240178532e-01 
1.160156250000e+08 9.537021569487e-01 
1.164062500000e+08 9.537799024025e-01 
1.167968750000e+08 9.538572575085e-01 
1.171875000000e+08 9.539342255222e-01 
1.175781250000e+08 9.540108096615e-01 
1.179687500000e+08 9.540870131065e-01 
1.183593750000e+08 9.541628390008e-01 
1.187500000000e+08 9.542382904519e-01 
1.191406250000e+08 9.543133705313e-01 
1.195312500000e+08 9.543880822756e-01 
1.199218750000e+08 9.544624286866e-01 
1.203125000000e+08 9.545364127321e-01 
1.207031250000e+08 9.546100373461e-01 
1.210937500000e+08 9.546833054295e-01 
1.214843750000e+08 9.547562198507e-01 
1.218750000000e+08 9.548287834456e-01 
1.222656250000e+08 9.549009990186e-01 
1.226562500000e+08 9.549728693426e-01 
1.230468750000e+08 9.550443971600e-01 
1.234375000000e+08 9.551155851825e-01 
1.238281250000e+08 9.551864360920e-01 
1.242187500000e+08 9.552569525407e-01 
1.246093750000e+08 9.553271371518e-01 
1.250000000000e+08 9.553969925198e-01 
1.253906250000e+08 9.554665212108e-01 
1.257812500000e+08 9.555357257631e-01 
1.261718750000e+08 9.556046086875e-01 
1.265625000000e+08 9.556731724674e-01 
1.269531250000e+08 9.557414195596e-01 
1.273437500000e+08 9.558093523947e-01 
1.277343750000e+08 9.558769733770e-01 
1.281250000000e+08 9.559442848851e-01 
1.285156250000e+08 9.560112892725e-01 
1.289062500000e+08 9.560779888676e-01 
1.292968750000e+08 9.561443859740e-01 
1.296875000000e+08 9.562104828714e-01 
1.300781250000e+08 9.562762818152e-01 
1.304687500000e+08 9.563417850372e-01 
1.308593750000e+08 9.564069947458e-01 
1.312500000000e+08 9.564719131267e-01 
1.316406250000e+08 9.565365423425e-01 
1.320312500000e+08 9.566008845337e-01 
1.324218750000e+08 9.566649418183e-01 
1.328125000000e+08 9.567287162930e-01 
1.332031250000e+08 9.567922100325e-01 
1.335937500000e+08 9.568554250905e-01 
1.339843750000e+08 9.569183634996e-01 
1.343750000000e+08 9.569810272719e-01 
1.347656250000e+08 9.570434183988e-01 
1.351562500000e+08 9.571055388518e-01 
1.355468750000e+08 9.571673905824e-01 
1.359375000000e+08 9.572289755224e-01 
1.363281250000e+08 9.572902955842e-01 
1.367187500000e+08 9.573513526613e-01 
1.371093750000e+08 9.574121486280e-01 
1.375000000000e+08 9.574726853401e-01 
1.378906250000e+08 9.575329646351e-01 
1.382812500000e+08 9.575929883320e-01 
1.386718750000e+08 9.576527582321e-01 
1.390625000000e+08 9.577122761190e-01 
1.394531250000e+08 9.577715437588e-01 
1.398437500000e+08 9.578305629000e-01 
1.402343750000e+08 9.578893352746e-01 
1.406250000000e+08 9.579478625972e-01 
1.410156250000e+08 9.580061465662e-01 
1.414062500000e+08 9.580641888632e-01 
1.417968750000e+08 9.581219911539e-01 
1.421875000000e+08 9.581795550878e-01 
1.425781250000e+08 9.582368822986e-01 
1.429687500000e+08 9.582939744043e-01 
1.433593750000e+08 9.583508330077e-01 
1.437500000000e+08 9.584074596961e-01 
1.441406250000e+08 9.584638560417e-01 
1.445312500000e+08 9.585200236021e-01 
1.449218750000e+08 9.585759639200e-01 
1.453125000000e+08 9.586316785235e-01 
1.457031250000e+08 9.586871689267e-01 
1.460937500000e+08 9.587424366290e-01 
1.464843750000e+08 9.587974831163e-01 
1.468750000000e+08 9.588523098604e-01 
1.472656250000e+08 9.589069183194e-01 
1.476562500000e+08 9.589613099380e-01 
1.480468750000e+08 9.590154861475e-01 
1.484375000000e+08 9.590694483661e-01 
1.488281250000e+08 9.591231979989e-01 
1.492187500000e+08 9.591767364381e-01 
1.496093750000e+08 9.592300650631e-01 
1.500000000000e+08 9.592831852408e-01 
1.503906250000e+08 9.593360983258e-01 
1.507812500000e+08 9.593888056602e-01 
1.511718750000e+08 9.594413085741e-01 
1.515625000000e+08 9.594936083854e-01 
1.519531250000e+08 9.595457064005e-01 
1.523437500000e+08 9.595976039136e-01 
1.527343750000e+08 9.596493022077e-01 
1.531250000000e+08 9.597008025542e-01 
1.535156250000e+08 9.597521062131e-01 
1.539062500000e+08 9.598032144333e-01 
1.542968750000e+08 9.598541284527e-01 
1.546875000000e+08 9.599048494979e-01 
1.550781250000e+08 9.599553787852e-01 
1.554687500000e+08 9.600057175198e-01 
1.558593750000e+08 9.600558668964e-01 
1.562500000000e+08 9.601058280995e-01 
1.566406250000e+08 9.601556023029e-01 
1.570312500000e+08 9.602051906703e-01 
1.574218750000e+08 9.602545943555e-01 
1.578125000000e+08 9.603038145020e-01 
1.582031250000e+08 9.603528522436e-01 
1.585937500000e+08 9.604017087042e-01 
1.589843750000e+08 9.604503849981e-01 
1.593750000000e+08 9.604988822301e-01 
1.597656250000e+08 9.605472014955e-01 
1.601562500000e+08 9.605953438801e-01 
1.605468750000e+08 9.606433104607e-01 
1.609375000000e+08 9.606911023047e-01 
1.613281250000e+08 9.607387204707e-01 
1.617187500000e+08 9.607861660082e-01 
1.621093750000e+08 9.608334399579e-01 
1.625000000000e+08 9.608805433516e-01 
1.628906250000e+08 9.609274772126e-01 
1.632812500000e+08 9.609742425557e-01 
1.636718750000e+08 9.610208403870e-01 
1.640625000000e+08 9.610672717043e-01 
1.644531250000e+08 9.611135374972e-01 
1.648437500000e+08 9.611596387470e-01 
1.652343750000e+08 9.612055764269e-01 
1.656250000000e+08 9.612513515021e-01 
1.660156250000e+08 9.612969649297e-01 
1.664062500000e+08 9.613424176591e-01 
1.667968750000e+08 9.613877106319e-01 
1.671875000000e+08 9.614328447820e-01 
1.675781250000e+08 9.614778210355e-01 
1.679687500000e+08 9.615226403113e-01 
1.683593750000e+08 9.615673035205e-01 
1.687500000000e+08 9.616118115671e-01 
1.691406250000e+08 9.616561653476e-01 
1.695312500000e+08 9.617003657513e-01 
1.699218750000e+08 9.617444136604e-01 
1.703125000000e+08 9.617883099499e-01 
1.707031250000e+08 9.618320554881e-01 
1.710937500000e+08 9.618756511361e-01 
1.714843750000e+08 9.619190977480e-01 
1.718750000000e+08 9.619623961715e-01 
1.722656250000e+08 9.620055472473e-01 
1.726562500000e+08 9.620485518095e-01 
1.730468750000e+08 9.620914106856e-01 
1.734375000000e+08 9.621341246967e-01 
1.738281250000e+08 9.621766946573e-01 
1.742187500000e+08 9.622191213755e-01 
1.746093750000e+08 9.622614056532e-01 
1.750000000000e+08 9.623035482860e-01 
1.753906250000e+08 9.623455500632e-01 
1.757812500000e+08 9.623874117681e-01 
1.761718750000e+08 9.624291341778e-01 
1.765625000000e+08 9.624707180636e-01 
1.769531250000e+08 9.625121641904e-01 
1.773437500000e+08 9.625534733178e-01 
1.777343750000e+08 9.625946461990e-01 
1.781250000000e+08 9.626356835819e-01 
1.785156250000e+08 9.626765862083e-01 
1.789062500000e+08 9.627173548146e-01 
1.792968750000e+08 9.627579901314e-01 
1.796875000000e+08 9.627984928839e-01 
1.800781250000e+08 9.628388637916e-01 
1.804687500000e+08 9.628791035688e-01 
1.808593750000e+08 9.629192129242e-01 
1.812500000000e+08 9.629591925613e-01 
1.816406250000e+08 9.629990431782e-01 
1.820312500000e+08 9.630387654678e-01 
1.824218750000e+08 9.630783601178e-01 
1.828125000000e+08 9.631178278109e-01 
1.832031250000e+08 9.631571692245e-01 
1.835937500000e+08 9.631963850311e-01 
1.839843750000e+08 9.632354758982e-01 
1.843750000000e+08 9.632744424881e-01 
1.847656250000e+08 9.633132854587e-01 
1.851562500000e+08 9.633520054626e-01 
1.855468750000e+08 9.633906031478e-01 
1.859375000000e+08 9.634290791576e-01 
1.863281250000e+08 9.634674341304e-01 
1.867187500000e+08 9.635056687000e-01 
1.871093750000e+08 9.635437834957e-01 
1.875000000000e+08 9.635817791420e-01 
1.878906250000e+08 9.636196562591e-01 
1.882812500000e+08 9.636574154626e-01 
1.886718750000e+08 9.636950573635e-01 
1.890625000000e+08 9.637325825686e-01 
1.894531250000e+08 9.637699916802e-01 
1.898437500000e+08 9.638072852964e-01 
1.902343750000e+08 9.638444640109e-01 
1.906250000000e+08 9.638815284131e-01 
1.910156250000e+08 9.639184790884e-01 
1.914062500000e+08 9.639553166177e-01 
1.917968750000e+08 9.639920415781e-01 
1.921875000000e+08 9.640286545425e-01 
1.925781250000e+08 9.640651560796e-01 
1.929687500000e+08 9.641015467542e-01 
1.933593750000e+08 9.641378271270e-01 
1.937500000000e+08 9.641739977551e-01 
1.941406250000e+08 9.642100591912e-01 
1.945312500000e+08 9.642460119845e-01 
1.949218750000e+08 9.642818566801e-01 
1.953125000000e+08 9.643175938194e-01 
1.957031250000e+08 9.643532239402e-01 
1.960937500000e+08 9.643887475762e-01 
1.964843750000e+08 9.644241652577e-01 
1.968750000000e+08 9.644594775112e-01 
1.972656250000e+08 9.644946848595e-01 
1.976562500000e+08 9.645297878220e-01 
1.980468750000e+08 9.645647869143e-01 
1.984375000000e+08 9.645996826485e-01 
1.988281250000e+08 9.646344755333e-01 
1.992187500000e+08 9.646691660739e-01 
1.996093750000e+08 9.647037547720e-01 
2.000000000000e+08 9.647382421258e-01 
2.003906250000e+08 9.647726286303e-01 
2.007812500000e+08 9.648069147769e-01 
2.011718750000e+08 9.648411010540e-01 
2.015625000000e+08 9.648751879464e-01 
2.019531250000e+08 9.649091759357e-01 
2.023437500000e+08 9.649430655004e-01 
2.027343750000e+08 9.649768571155e-01 
2.031250000000e+08 9.650105512532e-01 
2.035156250000e+08 9.650441483822e-01 
2.039062500000e+08 9.650776489683e-01 
2.042968750000e+08 9.651110534740e-01 
2.046875000000e+08 9.651443623588e-01 
2.050781250000e+08 9.651775760793e-01 
2.054687500000e+08 9.652106950888e-01 
2.058593750000e+08 9.652437198377e-01 
2.062500000000e+08 9.652766507737e-01 
2.066406250000e+08 9.653094883411e-01 
2.070312500000e+08 9.653422329816e-01 
2.074218750000e+08 9.653748851338e-01 
2.078125000000e+08 9.654074452337e-01 
2.082031250000e+08 9.654399137141e-01 
2.085937500000e+08 9.654722910052e-01 
2.089843750000e+08 9.655045775343e-01 
2.093750000000e+08 9.655367737261e-01 
2.097656250000e+08 9.655688800023e-01 
2.101562500000e+08 9.656008967820e-01 
2.105468750000e+08 9.656328244816e-01 
2.109375000000e+08 9.656646635148e-01 
2.113281250000e+08 9.656964142926e-01 
2.117187500000e+08 9.657280772234e-01 
2.121093750000e+08 9.657596527130e-01 
2.125000000000e+08 9.657911411645e-01 
2.128906250000e+08 9.658225429785e-01 
2.132812500000e+08 9.658538585531e-01 
2.136718750000e+08 9.658850882838e-01 
2.140625000000e+08 9.659162325635e-01 
2.144531250000e+08 9.659472917828e-01 
2.148437500000e+08 9.659782663298e-01 
2.152343750000e+08 9.660091565900e-01 
2.156250000000e+08 9.660399629465e-01 
2.160156250000e+08 9.660706857801e-01 
2.164062500000e+08 9.661013254691e-01 
2.167968750000e+08 9.661318823896e-01 
2.171875000000e+08 9.661623569152e-01 
2.175781250000e+08 9.661927494171e-01 
2.179687500000e+08 9.662230602644e-01 
2.183593750000e+08 9.662532898237e-01 
2.187500000000e+08 9.662834384594e-01 
2.191406250000e+08 9.663135065337e-01 
2.195312500000e+08 9.663434944066e-01 
2.199218750000e+08 9.663734024356e-01 
2.203125000000e+08 9.664032309764e-01 
2.207031250000e+08 9.664329803821e-01 
2.210937500000e+08 9.664626510040e-01 
2.214843750000e+08 9.664922431909e-01 
2.218750000000e+08 9.665217572898e-01 
2.222656250000e+08 9.665511936454e-01 
2.226562500000e+08 9.665805526003e-01 
2.230468750000e+08 9.666098344950e-01 
2.234375000000e+08 9.666390396681e-01 
2.238281250000e+08 9.666681684559e-01 
2.242187500000e+08 9.666972211929e-01 
2.246093750000e+08 9.667261982114e-01 
2.250000000000e+08 9.667550998417e-01 
2.253906250000e+08 9.667839264124e-01 
2.257812500000e+08 9.668126782497e-01 
2.261718750000e+08 9.668413556781e-01 
2.265625000000e+08 9.668699590202e-01 
2.269531250000e+08 9.668984885965e-01 
2.273437500000e+08 9.669269447257e-01 
2.277343750000e+08 9.669553277246e-01 
2.281250000000e+08 9.669836379081e-01 
2.285156250000e+08 9.670118755892e-01 
2.289062500000e+08 9.670400410791e-01 
2.292968750000e+08 9.670681346871e-01 
2.296875000000e+08 9.670961567208e-01 
2.300781250000e+08 9.671241074859e-01 
2.304687500000e+08 9.671519872862e-01 
2.308593750000e+08 9.671797964240e-01 
2.312500000000e+08 9.672075351995e-01 
2.316406250000e+08 9.672352039114e-01 
2.320312500000e+08 9.672628028565e-01 
2.324218750000e+08 9.672903323301e-01 
2.328125000000e+08 9.673177926254e-01 
2.332031250000e+08 9.673451840342e-01 
2.335937500000e+08 9.673725068466e-01 
2.339843750000e+08 9.673997613509e-01 
2.343750000000e+08 9.674269478338e-01 
2.347656250000e+08 9.674540665804e-01 
2.351562500000e+08 9.674811178740e-01 
2.355468750000e+08 9.675081019964e-01 
2.359375000000e+08 9.675350192278e-01 
2.363281250000e+08 9.675618698467e-01 
2.367187500000e+08 9.675886541301e-01 
2.371093750000e+08 9.676153723534e-01 
2.375000000000e+08 9.676420247904e-01 
2.378906250000e+08 9.676686117134e-01 
2.382812500000e+08 9.676951333931e-01 
2.386718750000e+08 9.677215900987e-01 
2.390625000000e+08 9.677479820979e-01 
2.394531250000e+08 9.677743096568e-01 
2.398437500000e+08 9.678005730401e-01 
2.402343750000e+08 9.678267725110e-01 
2.406250000000e+08 9.678529083311e-01 
2.410156250000e+08 9.678789807608e-01 
2.414062500000e+08 9.679049900588e-01 
2.417968750000e+08 9.679309364824e-01 
2.421875000000e+08 9.679568202876e-01 
2.425781250000e+08 9.679826417288e-01 
2.429687500000e+08 9.680084010591e-01 
2.433593750000e+08 9.680340985301e-01 
2.437500000000e+08 9.680597343922e-01 
2.441406250000e+08 9.680853088942e-01 
2.445312500000e+08 9.681108222836e-01 
2.449218750000e+08 9.681362748067e-01 
2.453125000000e+08 9.681616667082e-01 
2.457031250000e+08 9.681869982315e-01 
2.460937500000e+08 9.682122696189e-01 
2.464843750000e+08 9.682374811111e-01 
2.468750000000e+08 9.682626329476e-01 
2.472656250000e+08 9.682877253666e-01 
2.476562500000e+08 9.683127586049e-01 
2.480468750000e+08 9.683377328984e-01 
2.484375000000e+08 9.683626484811e-01 
2.488281250000e+08 9.683875055863e-01 
2.492187500000e+08 9.684123044456e-01 
2.496093750000e+08 9.684370452898e-01 
2.500000000000e+08 9.684617283480e-01 
2.503906250000e+08 9.684863538484e-01 
2.507812500000e+08 9.685109220178e-01 
2.511718750000e+08 9.685354330819e-01 
2.515625000000e+08 9.685598872651e-01 
2.519531250000e+08 9.685842847907e-01 
2.523437500000e+08 9.686086258807e-01 
2.527343750000e+08 9.686329107559e-01 
2.531250000000e+08 9.686571396362e-01 
2.535156250000e+08 9.686813127400e-01 
2.539062500000e+08 9.687054302846e-01 
2.542968750000e+08 9.687294924864e-01 
2.546875000000e+08 9.687534995604e-01 
2.550781250000e+08 9.687774517206e-01 
2.554687500000e+08 9.688013491798e-01 
2.558593750000e+08 9.688251921497e-01 
2.562500000000e+08 9.688489808409e-01 
2.566406250000e+08 9.688727154629e-01 
2.570312500000e+08 9.688963962242e-01 
2.574218750000e+08 9.689200233321e-01 
2.578125000000e+08 9.689435969927e-01 
2.582031250000e+08 9.689671174114e-01 
2.585937500000e+08 9.689905847921e-01 
2.589843750000e+08 9.690139993380e-01 
2.593750000000e+08 9.690373612510e-01 
2.597656250000e+08 9.690606707321e-01 
2.601562500000e+08 9.690839279813e-01 
2.605468750000e+08 9.691071331974e-01 
2.609375000000e+08 9.691302865782e-01 
2.613281250000e+08 9.691533883208e-01 
2.617187500000e+08 9.691764386208e-01 
2.621093750000e+08 9.691994376732e-01 
2.625000000000e+08 9.692223856718e-01 
2.628906250000e+08 9.692452828095e-01 
2.632812500000e+08 9.692681292781e-01 
2.636718750000e+08 9.692909252687e-01 
2.640625000000e+08 9.693136709710e-01 
2.644531250000e+08 9.693363665742e-01 
2.648437500000e+08 9.693590122662e-01 
2.652343750000e+08 9.693816082341e-01 
2.656250000000e+08 9.694041546641e-01 
2.660156250000e+08 9.694266517413e-01 
2.664062500000e+08 9.694490996500e-01 
2.667968750000e+08 9.694714985736e-01 
2.671875000000e+08 9.694938486945e-01 
2.675781250000e+08 9.695161501941e-01 
2.679687500000e+08 9.695384032533e-01 
2.683593750000e+08 9.695606080515e-01 
2.687500000000e+08 9.695827647677e-01 
2.691406250000e+08 9.696048735798e-01 
2.695312500000e+08 9.696269346648e-01 
2.699218750000e+08 9.696489481989e-01 
2.703125000000e+08 9.696709143574e-01 
2.707031250000e+08 9.696928333148e-01 
2.710937500000e+08 9.697147052445e-01 
2.714843750000e+08 9.697365303194e-01 
2.718750000000e+08 9.697583087113e-01 
2.722656250000e+08 9.697800405912e-01 
2.726562500000e+08 9.698017261294e-01 
2.730468750000e+08 9.698233654951e-01 
2.734375000000e+08 9.698449588570e-01 
2.738281250000e+08 9.698665063827e-01 
2.742187500000e+08 9.698880082392e-01 
2.746093750000e+08 9.699094645925e-01 
2.750000000000e+08 9.699308756078e-01 
2.753906250000e+08 9.699522414498e-01 
2.757812500000e+08 9.699735622820e-01 
2.761718750000e+08 9.699948382674e-01 
2.765625000000e+08 9.700160695681e-01 
2.769531250000e+08 9.700372563454e-01 
2.773437500000e+08 9.700583987598e-01 
2.777343750000e+08 9.700794969712e-01 
2.781250000000e+08 9.701005511386e-01 
2.785156250000e+08 9.701215614201e-01 
2.789062500000e+08 9.701425279734e-01 
2.792968750000e+08 9.701634509551e-01 
2.796875000000e+08 9.701843305213e-01 
2.800781250000e+08 9.702051668273e-01 
2.804687500000e+08 9.702259600275e-01 
2.808593750000e+08 9.702467102757e-01 
2.812500000000e+08 9.702674177251e-01 
2.816406250000e+08 9.702880825279e-01 
2.820312500000e+08 9.703087048358e-01 
2.824218750000e+08 9.703292847996e-01 
2.828125000000e+08 9.703498225697e-01 
2.832031250000e+08 9.703703182954e-01 
2.835937500000e+08 9.703907721256e-01 
2.839843750000e+08 9.704111842083e-01 
2.843750000000e+08 9.704315546910e-01 
2.847656250000e+08 9.704518837203e-01 
2.851562500000e+08 9.704721714424e-01 
2.855468750000e+08 9.704924180025e-01 
2.859375000000e+08 9.705126235453e-01 
2.863281250000e+08 9.705327882148e-01 
2.867187500000e+08 9.705529121543e-01 
2.871093750000e+08 9.705729955066e-01 
2.875000000000e+08 9.705930384136e-01 
2.878906250000e+08 9.706130410167e-01 
2.882812500000e+08 9.706330034566e-01 
2.886718750000e+08 9.706529258733e-01 
2.890625000000e+08 9.706728084063e-01 
2.894531250000e+08 9.706926511943e-01 
2.898437500000e+08 9.707124543754e-01 
2.902343750000e+08 9.707322180872e-01 
2.906250000000e+08 9.707519424666e-01 
2.910156250000e+08 9.707716276497e-01 
2.914062500000e+08 9.707912737723e-01 
2.917968750000e+08 9.708108809693e-01 
2.921875000000e+08 9.708304493752e-01 
2.925781250000e+08 9.708499791237e-01 
2.929687500000e+08 9.708694703480e-01 
2.933593750000e+08 9.708889231807e-01 
2.937500000000e+08 9.709083377538e-01 
2.941406250000e+08 9.709277141986e-01 
2.945312500000e+08 9.709470526460e-01 
2.949218750000e+08 9.709663532262e-01 
2.953125000000e+08 9.709856160688e-01 
2.957031250000e+08 9.710048413029e-01 
2.960937500000e+08 9.710240290568e-01 
2.964843750000e+08 9.710431794586e-01 
2.968750000000e+08 9.710622926354e-01 
2.972656250000e+08 9.710813687141e-01 
2.976562500000e+08 9.711004078209e-01 
2.980468750000e+08 9.711194100814e-01 
2.984375000000e+08 9.711383756206e-01 
2.988281250000e+08 9.711573045630e-01 