 TITLE = "Time curves in points"
 VARIABLES = "TIME " "TEMPERATURE1" 
 ZONE T="POINT=POINT4"
0.000000000000e+00 0.000000000000e+00 
3.906250000000e+05 2.352711256610e-07 
7.812500000000e+05 2.427952153214e-06 
1.171875000000e+06 1.275755221918e-05 
1.562500000000e+06 4.582776843256e-05 
1.953125000000e+06 1.274198358048e-04 
2.343750000000e+06 2.940880555848e-04 
2.734375000000e+06 5.894720440340e-04 
3.125000000000e+06 1.058845817538e-03 
3.515625000000e+06 1.743810870810e-03 
3.906250000000e+06 2.678417039214e-03 
4.296875000000e+06 3.887121588835e-03 
4.687500000000e+06 5.384373175200e-03 
5.078125000000e+06 7.175338026021e-03 
5.468750000000e+06 9.257269770839e-03 
5.859375000000e+06 1.162112861801e-02 
6.250000000000e+06 1.425318751321e-02 
6.640625000000e+06 1.713647707350e-02 
7.031250000000e+06 2.025200351396e-02 
7.421875000000e+06 2.357972609702e-02 
7.812500000000e+06 2.709930989963e-02 
8.203125000000e+06 3.079068339863e-02 
8.593750000000e+06 3.463443455167e-02 
8.984375000000e+06 3.861207795291e-02 
9.375000000000e+06 4.270622200461e-02 
9.765625000000e+06 4.690066050031e-02 
1.015625000000e+07 5.118040845932e-02 
1.054687500000e+07 5.553169792418e-02 
1.093750000000e+07 5.994194590413e-02 
1.132812500000e+07 6.439970374349e-02 
1.171875000000e+07 6.889459486515e-02 
1.210937500000e+07 7.341724601006e-02 
1.250000000000e+07 7.795921567795e-02 
1.289062500000e+07 8.251292239351e-02 
1.328125000000e+07 8.707157460693e-02 
1.367187500000e+07 9.162910342883e-02 
1.406250000000e+07 9.618009895101e-02 
1.445312500000e+07 1.007197505774e-01 
1.484375000000e+07 1.052437915554e-01 
1.523437500000e+07 1.097484477323e-01 
1.562500000000e+07 1.142303904501e-01 
1.601562500000e+07 1.186866934132e-01 
1.640625000000e+07 1.231147933222e-01 
1.679687500000e+07 1.275124540346e-01 
1.718750000000e+07 1.318777340053e-01 
1.757812500000e+07 1.362089567560e-01 
1.796875000000e+07 1.405046841278e-01 
1.835937500000e+07 1.447636920802e-01 
1.875000000000e+07 1.489849488151e-01 
1.914062500000e+07 1.531675950138e-01 
1.953125000000e+07 1.573109259949e-01 
1.992187500000e+07 1.614143756107e-01 
2.031250000000e+07 1.654775017209e-01 
2.070312500000e+07 1.694999730892e-01 
2.109375000000e+07 1.734815575675e-01 
2.148437500000e+07 1.774221114433e-01 
2.187500000000e+07 1.813215698346e-01 
2.226562500000e+07 1.851799380325e-01 
2.265625000000e+07 1.889972836970e-01 
2.304687500000e+07 1.927737298230e-01 
2.343750000000e+07 1.965094484012e-01 
2.382812500000e+07 2.002046547042e-01 
2.421875000000e+07 2.038596021392e-01 
2.460937500000e+07 2.074745776084e-01 
2.500000000000e+07 2.110498973306e-01 
2.539062500000e+07 2.145859030770e-01 
2.578125000000e+07 2.180829587808e-01 
2.617187500000e+07 2.215414474855e-01 
2.656250000000e+07 2.249617685976e-01 
2.695312500000e+07 2.283443354150e-01 
2.734375000000e+07 2.316895729041e-01 
2.773437500000e+07 2.349979157014e-01 
2.812500000000e+07 2.382698063182e-01 
2.851562500000e+07 2.415056935293e-01 
2.890625000000e+07 2.447060309265e-01 
2.929687500000e+07 2.478712756228e-01 
2.968750000000e+07 2.510018870921e-01 
3.007812500000e+07 2.540983261313e-01 
3.046875000000e+07 2.571610539329e-01 
3.085937500000e+07 2.601905312586e-01 
3.125000000000e+07 2.631872177032e-01 
3.164062500000e+07 2.661515710402e-01 
3.203125000000e+07 2.690840466423e-01 
3.242187500000e+07 2.719850969683e-01 
3.281250000000e+07 2.748551711112e-01 
3.320312500000e+07 2.776947144008e-01 
3.359375000000e+07 2.805041680564e-01 
3.398437500000e+07 2.832839688835e-01 
3.437500000000e+07 2.860345490121e-01 
3.476562500000e+07 2.887563356706e-01 
3.515625000000e+07 2.914497509934e-01 
3.554687500000e+07 2.941152118584e-01 
3.593750000000e+07 2.967531297506e-01 
3.632812500000e+07 2.993639106509e-01 
3.671875000000e+07 3.019479549465e-01 
3.710937500000e+07 3.045056573605e-01 
3.750000000000e+07 3.070374068996e-01 
3.789062500000e+07 3.095435868179e-01 
3.828125000000e+07 3.120245745945e-01 
3.867187500000e+07 3.144807419241e-01 
3.906250000000e+07 3.169124547191e-01 
3.945312500000e+07 3.193200731216e-01 
3.984375000000e+07 3.217039515251e-01 
4.023437500000e+07 3.240644386035e-01 
4.062500000000e+07 3.264018773480e-01 
4.101562500000e+07 3.287166051099e-01 
4.140625000000e+07 3.310089536491e-01 
4.179687500000e+07 3.332792491879e-01 
4.218750000000e+07 3.355278124681e-01 
4.257812500000e+07 3.377549588131e-01 
4.296875000000e+07 3.399609981923e-01 
4.335937500000e+07 3.421462352885e-01 
4.375000000000e+07 3.443109695681e-01 
4.414062500000e+07 3.464554953522e-01 
4.453125000000e+07 3.485801018907e-01 
4.492187500000e+07 3.506850734367e-01 
4.531250000000e+07 3.527706893221e-01 
4.570312500000e+07 3.548372240344e-01 
4.609375000000e+07 3.568849472938e-01 
4.648437500000e+07 3.589141241305e-01 
4.687500000000e+07 3.609250149624e-01 
4.726562500000e+07 3.629178756730e-01 
4.765625000000e+07 3.648929576883e-01 
4.804687500000e+07 3.668505080548e-01 
4.843750000000e+07 3.687907695159e-01 
4.882812500000e+07 3.707139805884e-01 
4.921875000000e+07 3.726203756384e-01 
4.960937500000e+07 3.745101849561e-01 
5.000000000000e+07 3.763836348307e-01 
5.039062500000e+07 3.782409476238e-01 
5.078125000000e+07 3.800823418420e-01 
5.117187500000e+07 3.819080322089e-01 
5.156250000000e+07 3.837182297363e-01 
5.195312500000e+07 3.855131417936e-01 
5.234375000000e+07 3.872929721772e-01 
5.273437500000e+07 3.890579211785e-01 
5.312500000000e+07 3.908081856502e-01 
5.351562500000e+07 3.925439590729e-01 
5.390625000000e+07 3.942654316192e-01 
5.429687500000e+07 3.959727902179e-01 
5.468750000000e+07 3.976662186160e-01 
5.507812500000e+07 3.993458974408e-01 
5.546875000000e+07 4.010120042599e-01 
5.585937500000e+07 4.026647136407e-01 
5.625000000000e+07 4.043041972085e-01 
5.664062500000e+07 4.059306237036e-01 
5.703125000000e+07 4.075441590376e-01 
5.742187500000e+07 4.091449663482e-01 
5.781250000000e+07 4.107332060533e-01 
5.820312500000e+07 4.123090359036e-01 
5.859375000000e+07 4.138726110349e-01 
5.898437500000e+07 4.154240840186e-01 
5.937500000000e+07 4.169636049114e-01 
5.976562500000e+07 4.184913213048e-01 
6.015625000000e+07 4.200073783722e-01 
6.054687500000e+07 4.215119189160e-01 
6.093750000000e+07 4.230050834138e-01 
6.132812500000e+07 4.244870100633e-01 
6.171875000000e+07 4.259578348258e-01 
6.210937500000e+07 4.274176914702e-01 
6.250000000000e+07 4.288667116148e-01 
6.289062500000e+07 4.303050247686e-01 
6.328125000000e+07 4.317327583720e-01 
6.367187500000e+07 4.331500378367e-01 
6.406250000000e+07 4.345569865840e-01 
6.445312500000e+07 4.359537260833e-01 
6.484375000000e+07 4.373403758892e-01 
6.523437500000e+07 4.387170536779e-01 
6.562500000000e+07 4.400838752830e-01 
6.601562500000e+07 4.414409547303e-01 
6.640625000000e+07 4.427884042721e-01 
6.679687500000e+07 4.441263344209e-01 
6.718750000000e+07 4.454548539818e-01 
6.757812500000e+07 4.467740700847e-01 
6.796875000000e+07 4.480840882159e-01 
6.835937500000e+07 4.493850122487e-01 
6.875000000000e+07 4.506769444736e-01 
6.914062500000e+07 4.519599856276e-01 
6.953125000000e+07 4.532342349231e-01 
6.992187500000e+07 4.544997900766e-01 
7.031250000000e+07 4.557567473355e-01 
7.070312500000e+07 4.570052015058e-01 
7.109375000000e+07 4.582452459785e-01 
7.148437500000e+07 4.594769727556e-01 
7.187500000000e+07 4.607004724749e-01 
7.226562500000e+07 4.619158344360e-01 
7.265625000000e+07 4.631231466234e-01 
7.304687500000e+07 4.643224957314e-01 
7.343750000000e+07 4.655139671867e-01 
7.382812500000e+07 4.666976451717e-01 
7.421875000000e+07 4.678736126467e-01 
7.460937500000e+07 4.690419513720e-01 
7.500000000000e+07 4.702027419289e-01 
7.539062500000e+07 4.713560637413e-01 
7.578125000000e+07 4.725019950960e-01 
7.617187500000e+07 4.736406131629e-01 
7.656250000000e+07 4.747719940147e-01 
7.695312500000e+07 4.758962126463e-01 
7.734375000000e+07 4.770133429937e-01 
7.773437500000e+07 4.781234579529e-01 
7.812500000000e+07 4.792266293973e-01 
7.851562500000e+07 4.803229281964e-01 
7.890625000000e+07 4.814124242325e-01 
7.929687500000e+07 4.824951864185e-01 
7.968750000000e+07 4.835712827141e-01 
8.007812500000e+07 4.846407801423e-01 
8.046875000000e+07 4.857037448057e-01 
8.085937500000e+07 4.867602419022e-01 
8.125000000000e+07 4.878103357401e-01 
8.164062500000e+07 4.888540897539e-01 
8.203125000000e+07 4.898915665183e-01 
8.242187500000e+07 4.909228277636e-01 
8.281250000000e+07 4.919479343891e-01 
8.320312500000e+07 4.929669464778e-01 
8.359375000000e+07 4.939799233096e-01 
8.398437500000e+07 4.949869233749e-01 
8.437500000000e+07 4.959880043876e-01 
8.476562500000e+07 4.969832232984e-01 
8.515625000000e+07 4.979726363070e-01 
8.554687500000e+07 4.989562988745e-01 
8.593750000000e+07 4.999342657361e-01 
8.632812500000e+07 5.009065909122e-01 
8.671875000000e+07 5.018733277208e-01 
8.710937500000e+07 5.028345287885e-01 
8.750000000000e+07 5.037902460621e-01 
8.789062500000e+07 5.047405308192e-01 
8.828125000000e+07 5.056854336794e-01 
8.867187500000e+07 5.066250046146e-01 
8.906250000000e+07 5.075592929596e-01 
8.945312500000e+07 5.084883474224e-01 
8.984375000000e+07 5.094122160938e-01 
9.023437500000e+07 5.103309464576e-01 
9.062500000000e+07 5.112445854002e-01 
9.101562500000e+07 5.121531792197e-01 
9.140625000000e+07 5.130567736356e-01 
9.179687500000e+07 5.139554137978e-01 
9.218750000000e+07 5.148491442954e-01 
9.257812500000e+07 5.157380091653e-01 
9.296875000000e+07 5.166220519014e-01 
9.335937500000e+07 5.175013154624e-01 
9.375000000000e+07 5.183758422805e-01 
9.414062500000e+07 5.192456742693e-01 
9.453125000000e+07 5.201108528319e-01 
9.492187500000e+07 5.209714188686e-01 
9.531250000000e+07 5.218274127850e-01 
9.570312500000e+07 5.226788744990e-01 
9.609375000000e+07 5.235258434484e-01 
9.648437500000e+07 5.243683585983e-01 
9.687500000000e+07 5.252064584485e-01 
9.726562500000e+07 5.260401810397e-01 
9.765625000000e+07 5.268695639614e-01 
9.804687500000e+07 5.276946443577e-01 
9.843750000000e+07 5.285154589348e-01 
9.882812500000e+07 5.293320439669e-01 
9.921875000000e+07 5.301444353031e-01 
9.960937500000e+07 5.309526683734e-01 
1.000000000000e+08 5.317567781946e-01 
1.003906250000e+08 5.325567993773e-01 
1.007812500000e+08 5.333527661309e-01 
1.011718750000e+08 5.341447122700e-01 
1.015625000000e+08 5.349326712201e-01 
1.019531250000e+08 5.357166760229e-01 
1.023437500000e+08 5.364967593426e-01 
1.027343750000e+08 5.372729534705e-01 
1.031250000000e+08 5.380452903311e-01 
1.035156250000e+08 5.388138014870e-01 
1.039062500000e+08 5.395785181440e-01 
1.042968750000e+08 5.403394711565e-01 
1.046875000000e+08 5.410966910325e-01 
1.050781250000e+08 5.418502079382e-01 
1.054687500000e+08 5.426000517030e-01 
1.058593750000e+08 5.433462518246e-01 
1.062500000000e+08 5.440888374731e-01 
1.066406250000e+08 5.448278374960e-01 
1.070312500000e+08 5.455632804226e-01 
1.074218750000e+08 5.462951944684e-01 
1.078125000000e+08 5.470236075396e-01 
1.082031250000e+08 5.477485472372e-01 
1.085937500000e+08 5.484700408616e-01 
1.089843750000e+08 5.491881154162e-01 
1.093750000000e+08 5.499027976120e-01 
1.097656250000e+08 5.506141138714e-01 
1.101562500000e+08 5.513220903319e-01 
1.105468750000e+08 5.520267528506e-01 
1.109375000000e+08 5.527281270076e-01 
1.113281250000e+08 5.534262381096e-01 
1.117187500000e+08 5.541211111942e-01 
1.121093750000e+08 5.548127710328e-01 
1.125000000000e+08 5.555012421349e-01 
1.128906250000e+08 5.561865487511e-01 
1.132812500000e+08 5.568687148768e-01 
1.136718750000e+08 5.575477642554e-01 
1.140625000000e+08 5.582237203821e-01 
1.144531250000e+08 5.588966065068e-01 
1.148437500000e+08 5.595664456373e-01 
1.152343750000e+08 5.602332605428e-01 
1.156250000000e+08 5.608970737569e-01 
1.160156250000e+08 5.615579075808e-01 
1.164062500000e+08 5.622157840860e-01 
1.167968750000e+08 5.628707251178e-01 
1.171875000000e+08 5.635227522978e-01 
1.175781250000e+08 5.641718870271e-01 
1.179687500000e+08 5.648181504890e-01 
1.183593750000e+08 5.654615636520e-01 
1.187500000000e+08 5.661021472723e-01 
1.191406250000e+08 5.667399218968e-01 
1.195312500000e+08 5.673749078655e-01 
1.199218750000e+08 5.680071253146e-01 
1.203125000000e+08 5.686365941784e-01 
1.207031250000e+08 5.692633341926e-01 
1.210937500000e+08 5.698873648963e-01 
1.214843750000e+08 5.705087056349e-01 
1.218750000000e+08 5.711273755621e-01 
1.222656250000e+08 5.717433936426e-01 
1.226562500000e+08 5.723567786544e-01 
1.230468750000e+08 5.729675491914e-01 
1.234375000000e+08 5.735757236650e-01 
1.238281250000e+08 5.741813203072e-01 
1.242187500000e+08 5.747843571722e-01 
1.246093750000e+08 5.753848521391e-01 
1.250000000000e+08 5.759828229136e-01 
1.253906250000e+08 5.765782870304e-01 
1.257812500000e+08 5.771712618553e-01 
1.261718750000e+08 5.777617645873e-01 
1.265625000000e+08 5.783498122604e-01 
1.269531250000e+08 5.789354217460e-01 
1.273437500000e+08 5.795186097543e-01 
1.277343750000e+08 5.800993928370e-01 
1.281250000000e+08 5.806777873886e-01 
1.285156250000e+08 5.812538096487e-01 
1.289062500000e+08 5.818274757036e-01 
1.292968750000e+08 5.823988014882e-01 
1.296875000000e+08 5.829678027878e-01 
1.300781250000e+08 5.835344952403e-01 
1.304687500000e+08 5.840988943371e-01 
1.308593750000e+08 5.846610154257e-01 
1.312500000000e+08 5.852208737110e-01 
1.316406250000e+08 5.857784842568e-01 
1.320312500000e+08 5.863338619880e-01 
1.324218750000e+08 5.868870216918e-01 
1.328125000000e+08 5.874379780195e-01 
1.332031250000e+08 5.879867454879e-01 
1.335937500000e+08 5.885333384813e-01 
1.339843750000e+08 5.890777712524e-01 
1.343750000000e+08 5.896200579246e-01 
1.347656250000e+08 5.901602124927e-01 
1.351562500000e+08 5.906982488251e-01 
1.355468750000e+08 5.912341806648e-01 
1.359375000000e+08 5.917680216309e-01 
1.363281250000e+08 5.922997852202e-01 
1.367187500000e+08 5.928294848087e-01 
1.371093750000e+08 5.933571336524e-01 
1.375000000000e+08 5.938827448894e-01 
1.378906250000e+08 5.944063315407e-01 
1.382812500000e+08 5.949279065118e-01 
1.386718750000e+08 5.954474825939e-01 
1.390625000000e+08 5.959650724653e-01 
1.394531250000e+08 5.964806886926e-01 
1.398437500000e+08 5.969943437318e-01 
1.402343750000e+08 5.975060499299e-01 
1.406250000000e+08 5.980158195258e-01 
1.410156250000e+08 5.985236646516e-01 
1.414062500000e+08 5.990295973340e-01 
1.417968750000e+08 5.995336294949e-01 
1.421875000000e+08 6.000357729534e-01 
1.425781250000e+08 6.005360394262e-01 
1.429687500000e+08 6.010344405290e-01 
1.433593750000e+08 6.015309877778e-01 
1.437500000000e+08 6.020256925895e-01 
1.441406250000e+08 6.025185662838e-01 
1.445312500000e+08 6.030096200832e-01 
1.449218750000e+08 6.034988651150e-01 
1.453125000000e+08 6.039863124118e-01 
1.457031250000e+08 6.044719729128e-01 
1.460937500000e+08 6.049558574645e-01 
1.464843750000e+08 6.054379768221e-01 
1.468750000000e+08 6.059183416502e-01 
1.472656250000e+08 6.063969625238e-01 
1.476562500000e+08 6.068738499293e-01 
1.480468750000e+08 6.073490142657e-01 
1.484375000000e+08 6.078224658451e-01 
1.488281250000e+08 6.082942148937e-01 
1.492187500000e+08 6.087642715530e-01 
1.496093750000e+08 6.092326458807e-01 
1.500000000000e+08 6.096993478510e-01 
1.503906250000e+08 6.101643873563e-01 
1.507812500000e+08 6.106277742075e-01 
1.511718750000e+08 6.110895181349e-01 
1.515625000000e+08 6.115496287894e-01 
1.519531250000e+08 6.120081157429e-01 
1.523437500000e+08 6.124649884894e-01 
1.527343750000e+08 6.129202564458e-01 
1.531250000000e+08 6.133739289526e-01 
1.535156250000e+08 6.138260152746e-01 
1.539062500000e+08 6.142765246019e-01 
1.542968750000e+08 6.147254660506e-01 
1.546875000000e+08 6.151728486636e-01 
1.550781250000e+08 6.156186814111e-01 
1.554687500000e+08 6.160629731917e-01 
1.558593750000e+08 6.165057328330e-01 
1.562500000000e+08 6.169469690922e-01 
1.566406250000e+08 6.173866906570e-01 
1.570312500000e+08 6.178249061460e-01 
1.574218750000e+08 6.182616241100e-01 
1.578125000000e+08 6.186968530319e-01 
1.582031250000e+08 6.191306013282e-01 
1.585937500000e+08 6.195628773490e-01 
1.589843750000e+08 6.199936893789e-01 
1.593750000000e+08 6.204230456380e-01 
1.597656250000e+08 6.208509542818e-01 
1.601562500000e+08 6.212774234027e-01 
1.605468750000e+08 6.217024610299e-01 
1.609375000000e+08 6.221260751306e-01 
1.613281250000e+08 6.225482736100e-01 
1.617187500000e+08 6.229690643127e-01 
1.621093750000e+08 6.233884550226e-01 
1.625000000000e+08 6.238064534638e-01 
1.628906250000e+08 6.242230673012e-01 
1.632812500000e+08 6.246383041410e-01 
1.636718750000e+08 6.250521715314e-01 
1.640625000000e+08 6.254646769631e-01 
1.644531250000e+08 6.258758278696e-01 
1.648437500000e+08 6.262856316283e-01 
1.652343750000e+08 6.266940955606e-01 
1.656250000000e+08 6.271012269326e-01 
1.660156250000e+08 6.275070329556e-01 
1.664062500000e+08 6.279115207868e-01 
1.667968750000e+08 6.283146975295e-01 
1.671875000000e+08 6.287165702338e-01 
1.675781250000e+08 6.291171458974e-01 
1.679687500000e+08 6.295164314655e-01 
1.683593750000e+08 6.299144338316e-01 
1.687500000000e+08 6.303111598382e-01 
1.691406250000e+08 6.307066162770e-01 
1.695312500000e+08 6.311008098894e-01 
1.699218750000e+08 6.314937473673e-01 
1.703125000000e+08 6.318854353530e-01 
1.707031250000e+08 6.322758804402e-01 
1.710937500000e+08 6.326650891743e-01 
1.714843750000e+08 6.330530680525e-01 
1.718750000000e+08 6.334398235248e-01 
1.722656250000e+08 6.338253619942e-01 
1.726562500000e+08 6.342096898172e-01 
1.730468750000e+08 6.345928133038e-01 
1.734375000000e+08 6.349747387188e-01 
1.738281250000e+08 6.353554722814e-01 
1.742187500000e+08 6.357350201660e-01 
1.746093750000e+08 6.361133885027e-01 
1.750000000000e+08 6.364905833774e-01 
1.753906250000e+08 6.368666108325e-01 
1.757812500000e+08 6.372414768672e-01 
1.761718750000e+08 6.376151874378e-01 
1.765625000000e+08 6.379877484581e-01 
1.769531250000e+08 6.383591658001e-01 
1.773437500000e+08 6.387294452940e-01 
1.777343750000e+08 6.390985927287e-01 
1.781250000000e+08 6.394666138522e-01 
1.785156250000e+08 6.398335143721e-01 
1.789062500000e+08 6.401992999557e-01 
1.792968750000e+08 6.405639762306e-01 
1.796875000000e+08 6.409275487849e-01 
1.800781250000e+08 6.412900231676e-01 
1.804687500000e+08 6.416514048891e-01 
1.808593750000e+08 6.420116994213e-01 
1.812500000000e+08 6.423709121980e-01 
1.816406250000e+08 6.427290486156e-01 
1.820312500000e+08 6.430861140327e-01 
1.824218750000e+08 6.434421137713e-01 
1.828125000000e+08 6.437970531165e-01 
1.832031250000e+08 6.441509373170e-01 
1.835937500000e+08 6.445037715855e-01 
1.839843750000e+08 6.448555610989e-01 
1.843750000000e+08 6.452063109989e-01 
1.847656250000e+08 6.455560263919e-01 
1.851562500000e+08 6.459047123495e-01 
1.855468750000e+08 6.462523739089e-01 
1.859375000000e+08 6.465990160731e-01 
1.863281250000e+08 6.469446438111e-01 
1.867187500000e+08 6.472892620586e-01 
1.871093750000e+08 6.476328757177e-01 
1.875000000000e+08 6.479754896575e-01 
1.878906250000e+08 6.483171087147e-01 
1.882812500000e+08 6.486577376931e-01 
1.886718750000e+08 6.489973813648e-01 
1.890625000000e+08 6.493360444697e-01 
1.894531250000e+08 6.496737317161e-01 
1.898437500000e+08 6.500104477813e-01 
1.902343750000e+08 6.503461973111e-01 
1.906250000000e+08 6.506809849209e-01 
1.910156250000e+08 6.510148151952e-01 
1.914062500000e+08 6.513476926884e-01 
1.917968750000e+08 6.516796219250e-01 
1.921875000000e+08 6.520106073996e-01 
1.925781250000e+08 6.523406535773e-01 
1.929687500000e+08 6.526697648939e-01 
1.933593750000e+08 6.529979457564e-01 
1.937500000000e+08 6.533252005427e-01 
1.941406250000e+08 6.536515336025e-01 
1.945312500000e+08 6.539769492571e-01 
1.949218750000e+08 6.543014517997e-01 
1.953125000000e+08 6.546250454958e-01 
1.957031250000e+08 6.549477345832e-01 
1.960937500000e+08 6.552695232725e-01 
1.964843750000e+08 6.555904157470e-01 
1.968750000000e+08 6.559104161632e-01 
1.972656250000e+08 6.562295286511e-01 
1.976562500000e+08 6.565477573140e-01 
1.980468750000e+08 6.568651062292e-01 
1.984375000000e+08 6.571815794477e-01 
1.988281250000e+08 6.574971809949e-01 
1.992187500000e+08 6.578119148707e-01 
1.996093750000e+08 6.581257850495e-01 
2.000000000000e+08 6.584387954805e-01 
2.003906250000e+08 6.587509500881e-01 
2.007812500000e+08 6.590622527717e-01 
2.011718750000e+08 6.593727074065e-01 
2.015625000000e+08 6.596823178430e-01 
2.019531250000e+08 6.599910879077e-01 
2.023437500000e+08 6.602990214033e-01 
2.027343750000e+08 6.606061221085e-01 
2.031250000000e+08 6.609123937785e-01 
2.035156250000e+08 6.612178401451e-01 
2.039062500000e+08 6.615224649171e-01 
2.042968750000e+08 6.618262717800e-01 
2.046875000000e+08 6.621292643968e-01 
2.050781250000e+08 6.624314464076e-01 
2.054687500000e+08 6.627328214301e-01 
2.058593750000e+08 6.630333930599e-01 
2.062500000000e+08 6.633331648703e-01 
2.066406250000e+08 6.636321404128e-01 
2.070312500000e+08 6.639303232172e-01 
2.074218750000e+08 6.642277167916e-01 
2.078125000000e+08 6.645243246226e-01 
2.082031250000e+08 6.648201501760e-01 
2.085937500000e+08 6.651151968961e-01 
2.089843750000e+08 6.654094682065e-01 
2.093750000000e+08 6.657029675100e-01 
2.097656250000e+08 6.659956981890e-01 
2.101562500000e+08 6.662876636052e-01 
2.105468750000e+08 6.665788671003e-01 
2.109375000000e+08 6.668693119958e-01 
2.113281250000e+08 6.671590015934e-01 
2.117187500000e+08 6.674479391748e-01 
2.121093750000e+08 6.677361280023e-01 
2.125000000000e+08 6.680235713186e-01 
2.128906250000e+08 6.683102723471e-01 
2.132812500000e+08 6.685962342921e-01 
2.136718750000e+08 6.688814603387e-01 
2.140625000000e+08 6.691659536535e-01 
2.144531250000e+08 6.694497173840e-01 
2.148437500000e+08 6.697327546592e-01 
2.152343750000e+08 6.700150685898e-01 
2.156250000000e+08 6.702966622681e-01 
2.160156250000e+08 6.705775387682e-01 
2.164062500000e+08 6.708577011463e-01 
2.167968750000e+08 6.711371524407e-01 
2.171875000000e+08 6.714158956719e-01 
2.175781250000e+08 6.716939338427e-01 
2.179687500000e+08 6.719712699386e-01 
2.183593750000e+08 6.722479069277e-01 
2.187500000000e+08 6.725238477609e-01 
2.191406250000e+08 6.727990953720e-01 
2.195312500000e+08 6.730736526777e-01 
2.199218750000e+08 6.733475225782e-01 
2.203125000000e+08 6.736207079567e-01 
2.207031250000e+08 6.738932116799e-01 
2.210937500000e+08 6.741650365983e-01 
2.214843750000e+08 6.744361855457e-01 
2.218750000000e+08 6.747066613398e-01 
2.222656250000e+08 6.749764667825e-01 
2.226562500000e+08 6.752456046594e-01 
2.230468750000e+08 6.755140777404e-01 
2.234375000000e+08 6.757818887796e-01 
2.238281250000e+08 6.760490405157e-01 
2.242187500000e+08 6.763155356715e-01 
2.246093750000e+08 6.765813769549e-01 
2.250000000000e+08 6.768465670582e-01 
2.253906250000e+08 6.771111086586e-01 
2.257812500000e+08 6.773750044184e-01 
2.261718750000e+08 6.776382569849e-01 
2.265625000000e+08 6.779008689905e-01 
2.269531250000e+08 6.781628430529e-01 
2.273437500000e+08 6.784241817753e-01 
2.277343750000e+08 6.786848877463e-01 
2.281250000000e+08 6.789449635401e-01 
2.285156250000e+08 6.792044117168e-01 
2.289062500000e+08 6.794632348221e-01 
2.292968750000e+08 6.797214353876e-01 
2.296875000000e+08 6.799790159311e-01 
2.300781250000e+08 6.802359789564e-01 
2.304687500000e+08 6.804923269535e-01 
2.308593750000e+08 6.807480623989e-01 
2.312500000000e+08 6.810031877553e-01 
2.316406250000e+08 6.812577054720e-01 
2.320312500000e+08 6.815116179849e-01 
2.324218750000e+08 6.817649277166e-01 
2.328125000000e+08 6.820176370766e-01 
2.332031250000e+08 6.822697484612e-01 
2.335937500000e+08 6.825212642537e-01 
2.339843750000e+08 6.827721868246e-01 
2.343750000000e+08 6.830225185313e-01 
2.347656250000e+08 6.832722617187e-01 
2.351562500000e+08 6.835214187191e-01 
2.355468750000e+08 6.837699918520e-01 
2.359375000000e+08 6.840179834246e-01 
2.363281250000e+08 6.842653957318e-01 
2.367187500000e+08 6.845122310561e-01 
2.371093750000e+08 6.847584916677e-01 
2.375000000000e+08 6.850041798249e-01 
2.378906250000e+08 6.852492977737e-01 
2.382812500000e+08 6.854938477485e-01 
2.386718750000e+08 6.857378319714e-01 
2.390625000000e+08 6.859812526532e-01 
2.394531250000e+08 6.862241119926e-01 
2.398437500000e+08 6.864664121768e-01 
2.402343750000e+08 6.867081553816e-01 
2.406250000000e+08 6.869493437712e-01 
2.410156250000e+08 6.871899794985e-01 
2.414062500000e+08 6.874300647049e-01 
2.417968750000e+08 6.876696015208e-01 
2.421875000000e+08 6.879085920653e-01 
2.425781250000e+08 6.881470384467e-01 
2.429687500000e+08 6.883849427620e-01 
2.433593750000e+08 6.886223070973e-01 
2.437500000000e+08 6.888591335281e-01 
2.441406250000e+08 6.890954241189e-01 
2.445312500000e+08 6.893311809236e-01 
2.449218750000e+08 6.895664059855e-01 
2.453125000000e+08 6.898011013372e-01 
2.457031250000e+08 6.900352690010e-01 
2.460937500000e+08 6.902689109886e-01 
2.464843750000e+08 6.905020293017e-01 
2.468750000000e+08 6.907346259313e-01 
2.472656250000e+08 6.909667028585e-01 
2.476562500000e+08 6.911982620541e-01 
2.480468750000e+08 6.914293054791e-01 
2.484375000000e+08 6.916598350841e-01 
2.488281250000e+08 6.918898528101e-01 
2.492187500000e+08 6.921193605880e-01 
2.496093750000e+08 6.923483603392e-01 
2.500000000000e+08 6.925768539752e-01 
2.503906250000e+08 6.928048433977e-01 
2.507812500000e+08 6.930323304990e-01 
2.511718750000e+08 6.932593171617e-01 
2.515625000000e+08 6.934858052592e-01 
2.519531250000e+08 6.937117966552e-01 
2.523437500000e+08 6.939372932041e-01 
2.527343750000e+08 6.941622967512e-01 
2.531250000000e+08 6.943868091323e-01 
2.535156250000e+08 6.946108321743e-01 
2.539062500000e+08 6.948343676948e-01 
2.542968750000e+08 6.950574175024e-01 
2.546875000000e+08 6.952799833968e-01 
2.550781250000e+08 6.955020671686e-01 
2.554687500000e+08 6.957236705998e-01 
2.558593750000e+08 6.959447954633e-01 
2.562500000000e+08 6.961654435234e-01 
2.566406250000e+08 6.963856165357e-01 
2.570312500000e+08 6.966053162470e-01 
2.574218750000e+08 6.968245443958e-01 
2.578125000000e+08 6.970433027118e-01 
2.582031250000e+08 6.972615929165e-01 
2.585937500000e+08 6.974794167226e-01 
2.589843750000e+08 6.976967758348e-01 
2.593750000000e+08 6.979136719492e-01 
2.597656250000e+08 6.981301067539e-01 
2.601562500000e+08 6.983460819287e-01 
2.605468750000e+08 6.985615991451e-01 
2.609375000000e+08 6.987766600666e-01 
2.613281250000e+08 6.989912663488e-01 
2.617187500000e+08 6.992054196391e-01 
2.621093750000e+08 6.994191215770e-01 
2.625000000000e+08 6.996323737942e-01 
2.628906250000e+08 6.998451779143e-01 
2.632812500000e+08 7.000575355535e-01 
2.636718750000e+08 7.002694483198e-01 
2.640625000000e+08 7.004809178139e-01 
2.644531250000e+08 7.006919456286e-01 
2.648437500000e+08 7.009025333492e-01 
2.652343750000e+08 7.011126825534e-01 
2.656250000000e+08 7.013223948114e-01 
2.660156250000e+08 7.015316716859e-01 
2.664062500000e+08 7.017405147324e-01 
2.667968750000e+08 7.019489254987e-01 
2.671875000000e+08 7.021569055255e-01 
2.675781250000e+08 7.023644563461e-01 
2.679687500000e+08 7.025715794868e-01 
2.683593750000e+08 7.027782764664e-01 
2.687500000000e+08 7.029845487968e-01 
2.691406250000e+08 7.031903979827e-01 
2.695312500000e+08 7.033958255217e-01 
2.699218750000e+08 7.036008329044e-01 
2.703125000000e+08 7.038054216146e-01 
2.707031250000e+08 7.040095931290e-01 
2.710937500000e+08 7.042133489175e-01 
2.714843750000e+08 7.044166904430e-01 
2.718750000000e+08 7.046196191619e-01 
2.722656250000e+08 7.048221365236e-01 
2.726562500000e+08 7.050242439708e-01 
2.730468750000e+08 7.052259429397e-01 
2.734375000000e+08 7.054272348598e-01 
2.738281250000e+08 7.056281211537e-01 
2.742187500000e+08 7.058286032379e-01 
2.746093750000e+08 7.060286825222e-01 
2.750000000000e+08 7.062283604099e-01 
2.753906250000e+08 7.064276382978e-01 
2.757812500000e+08 7.066265175764e-01 
2.761718750000e+08 7.068249996299e-01 
2.765625000000e+08 7.070230858360e-01 
2.769531250000e+08 7.072207775664e-01 
2.773437500000e+08 7.074180761862e-01 
2.777343750000e+08 7.076149830545e-01 
2.781250000000e+08 7.078114995242e-01 
2.785156250000e+08 7.080076269422e-01 
2.789062500000e+08 7.082033666490e-01 
2.792968750000e+08 7.083987199793e-01 
2.796875000000e+08 7.085936882617e-01 
2.800781250000e+08 7.087882728187e-01 
2.804687500000e+08 7.089824749670e-01 
2.808593750000e+08 7.091762960173e-01 
2.812500000000e+08 7.093697372745e-01 
2.816406250000e+08 7.095628000376e-01 
2.820312500000e+08 7.097554855996e-01 
2.824218750000e+08 7.099477952481e-01 
2.828125000000e+08 7.101397302646e-01 
2.832031250000e+08 7.103312919252e-01 
2.835937500000e+08 7.105224814999e-01 
2.839843750000e+08 7.107133002536e-01 
2.843750000000e+08 7.109037494451e-01 
2.847656250000e+08 7.110938303279e-01 
2.851562500000e+08 7.112835441498e-01 
2.855468750000e+08 7.114728921532e-01 
2.859375000000e+08 7.116618755750e-01 
2.863281250000e+08 7.118504956465e-01 
2.867187500000e+08 7.120387535938e-01 
2.871093750000e+08 7.122266506375e-01 
2.875000000000e+08 7.124141879927e-01 
2.878906250000e+08 7.126013668694e-01 
2.882812500000e+08 7.127881884723e-01 
2.886718750000e+08 7.129746540007e-01 
2.890625000000e+08 7.131607646486e-01 
2.894531250000e+08 7.133465216050e-01 
2.898437500000e+08 7.135319260537e-01 
2.902343750000e+08 7.137169791731e-01 
2.906250000000e+08 7.139016821368e-01 
2.910156250000e+08 7.140860361131e-01 
2.914062500000e+08 7.142700422654e-01 
2.917968750000e+08 7.144537017518e-01 
2.921875000000e+08 7.146370157257e-01 
2.925781250000e+08 7.148199853354e-01 
2.929687500000e+08 7.150026117243e-01 
2.933593750000e+08 7.151848960306e-01 
2.937500000000e+08 7.153668393881e-01 
2.941406250000e+08 7.155484429253e-01 
2.945312500000e+08 7.157297077662e-01 
2.949218750000e+08 7.159106350296e-01 
2.953125000000e+08 7.160912258299e-01 
2.957031250000e+08 7.162714812765e-01 
2.960937500000e+08 7.164514024743e-01 
2.964843750000e+08 7.166309905231e-01 
2.968750000000e+08 7.168102465185e-01 
2.972656250000e+08 7.169891715511e-01 
2.976562500000e+08 7.171677667071e-01 
2.980468750000e+08 7.173460330678e-01 
2.984375000000e+08 7.175239717103e-01 
2.988281250000e+08 7.177015837068e-01 